/*--------------------------------*- C++ -*----------------------------------*\
| =========                 |                                                 |
| \\      /  F ield         | OpenFOAM: The Open Source CFD Toolbox           |
|  \\    /   O peration     | Version:  2506                                  |
|   \\  /    A nd           | Website:  www.openfoam.com                      |
|    \\/     M anipulation  |                                                 |
\*---------------------------------------------------------------------------*/
FoamFile
{
    version     2.0;
    format      ascii;
    arch        "LSB;label=32;scalar=64";
    class       volVectorField;
    location    "6000/water";
    object      U;
}
// * * * * * * * * * * * * * * * * * * * * * * * * * * * * * * * * * * * * * //

dimensions      [0 1 -1 0 0 0 0];

internalField   nonuniform List<vector> 
6000
(
(0.25028648 -3.4193492e-05 2.653975e-18)
(0.25028875 -7.4648812e-05 -4.3648007e-18)
(0.25029344 -0.00011804414 1.0338325e-19)
(0.25030059 -0.00016540046 7.6689994e-21)
(0.25031046 -0.00021487336 -1.6406171e-19)
(0.25032332 -0.00026685039 1.2464566e-19)
(0.25033948 -0.00032192175 2.4886934e-19)
(0.25035939 -0.00038078672 2.1435328e-19)
(0.25038356 -0.00044434477 1.198582e-19)
(0.25041254 -0.00051362452 -4.4316056e-20)
(0.25044587 -0.0005867756 -1.0925657e-20)
(0.25047643 -0.00065822056 -1.7705015e-19)
(0.25046276 -0.00078466513 -7.7446433e-20)
(0.25013031 -0.0015987837 -4.2333721e-20)
(0.24584996 0.0019968142 8.8949235e-21)
(0.25104035 -3.7261304e-05 2.325202e-18)
(0.25104514 -8.989598e-05 -2.629443e-18)
(0.2510558 -0.00014352114 -1.3816298e-19)
(0.25107219 -0.00020025424 -3.1641429e-19)
(0.2510947 -0.0002571822 3.2748424e-19)
(0.25112368 -0.00031440571 3.6746601e-19)
(0.25115965 -0.00037188242 7.6302536e-19)
(0.25120324 -0.00042947839 5.3404448e-19)
(0.2512551 -0.00048709454 2.002447e-19)
(0.25131538 -0.00054561245 -7.4552767e-20)
(0.25138039 -0.00060405492 -1.4770327e-19)
(0.25142587 -0.00063755821 -3.9427475e-19)
(0.25133175 -0.00059164843 -1.6327066e-19)
(0.25037931 -0.0014370973 -8.335067e-20)
(0.24194277 0.00099520264 1.996527e-20)
(0.25195051 -3.6589029e-05 -2.1998643e-18)
(0.25195563 -9.0250613e-05 2.599735e-18)
(0.25196731 -0.00014313025 1.0167026e-18)
(0.25198528 -0.00019912656 -1.4731861e-18)
(0.25200977 -0.00025508716 1.5252625e-19)
(0.25204101 -0.0003112558 -1.7225373e-19)
(0.25207932 -0.00036762123 -1.2676231e-19)
(0.25212505 -0.00042413945 -1.8620306e-19)
(0.25217823 -0.00048056787 -3.1981602e-19)
(0.25223708 -0.0005377572 -3.3560909e-19)
(0.25229114 -0.00060007155 -7.6467724e-19)
(0.25229033 -0.00065419843 -7.247958e-19)
(0.25200573 -0.00054460881 -5.5133799e-19)
(0.25014357 -0.0012195308 -3.2369691e-19)
(0.23758495 0.00043820543 -1.6659819e-19)
(0.25283353 -3.7446604e-05 -8.5270723e-19)
(0.25283867 -9.3611089e-05 -1.0628458e-18)
(0.25285018 -0.00014906892 9.4259006e-19)
(0.25286783 -0.00020791578 -3.206306e-19)
(0.25289182 -0.00026672308 1.7219888e-19)
(0.25292238 -0.00032582165 -2.9236759e-19)
(0.25295982 -0.00038519269 -3.5428752e-19)
(0.25300432 -0.00044485276 -3.4157867e-19)
(0.25305525 -0.00050441426 -4.1837125e-19)
(0.25310809 -0.00056332944 -5.8901355e-20)
(0.25314261 -0.00062607506 -4.9743171e-19)
(0.25307635 -0.00069910336 -5.1771116e-19)
(0.25255493 -0.0005845712 -5.3513533e-19)
(0.24963188 -0.001063787 -2.627934e-19)
(0.23320285 0.0001058672 -2.1997696e-19)
(0.25372643 -3.8342944e-05 8.1280375e-18)
(0.2537317 -9.6368692e-05 5.8605509e-19)
(0.25374347 -0.00015372841 1.2195707e-18)
(0.25376156 -0.00021453144 8.8039742e-19)
(0.25378616 -0.00027516439 4.3486428e-19)
(0.25381749 -0.00033599427 5.0748539e-19)
(0.25385581 -0.00039694563 1.4269419e-19)
(0.25390101 -0.00045805575 1.9083913e-19)
(0.25395133 -0.00051907431 -4.3261055e-20)
(0.25399821 -0.00057855465 4.2369447e-21)
(0.25400834 -0.00063773998 2.2473734e-19)
(0.25386022 -0.0007177221 -9.6493917e-21)
(0.25305737 -0.00062191547 4.8300061e-20)
(0.24895451 -0.00093835859 2.2962924e-20)
(0.22897365 -8.3792338e-05 -4.8952174e-21)
(0.25464474 -3.8661619e-05 -1.2786005e-18)
(0.25465014 -9.7320119e-05 -1.340368e-18)
(0.2546622 -0.00015516462 5.0059632e-19)
(0.25468073 -0.00021648309 -7.7997911e-21)
(0.2547059 -0.00027758564 -6.1285345e-19)
(0.25473792 -0.000338881 4.0085534e-19)
(0.25477689 -0.00040025681 -1.3817835e-19)
(0.25482222 -0.000461728 1.7626539e-19)
(0.25487049 -0.00052322808 1.8107291e-19)
(0.2549078 -0.000583188 -1.2994276e-20)
(0.25488519 -0.00063896641 1.1019403e-19)
(0.25463685 -0.00071821651 1.6091214e-20)
(0.25350729 -0.0006469875 5.9196977e-20)
(0.248129 -0.00083894719 -6.4792018e-21)
(0.2249409 -0.00018589273 4.984961e-21)
(0.25557031 -3.8595293e-05 -4.3188693e-18)
(0.25557581 -9.7309346e-05 -2.371072e-18)
(0.25558805 -0.00015511983 -9.7933917e-19)
(0.25560682 -0.00021642526 -8.0090622e-23)
(0.2556323 -0.00027749359 -1.445371e-18)
(0.25566463 -0.00033876345 4.936365e-20)
(0.25570371 -0.00040009734 -2.2910769e-20)
(0.25574825 -0.00046144626 -4.5273596e-20)
(0.25579256 -0.00052279714 1.8906814e-19)
(0.25581623 -0.0005828814 1.7529764e-19)
(0.25575267 -0.00063600478 2.9060087e-20)
(0.25538743 -0.00071016267 2.5691299e-21)
(0.25388915 -0.00066107344 3.6734278e-21)
(0.24716598 -0.00076077854 -5.1730196e-20)
(0.22112141 -0.00023459296 -7.3439258e-20)
(0.25649134 -3.8297106e-05 6.035965e-18)
(0.25649692 -9.6712129e-05 1.5330405e-18)
(0.25650928 -0.00015419069 1.3142622e-18)
(0.25652824 -0.00021515485 5.0129432e-19)
(0.25655393 -0.00027585718 -5.7599279e-19)
(0.25658641 -0.0003367553 2.4711661e-19)
(0.25662528 -0.00039769653 -5.6388467e-20)
(0.2566683 -0.00045856441 -3.2104993e-19)
(0.25670691 -0.00051927104 -1.7462694e-19)
(0.25671305 -0.00057893859 -8.7859811e-20)
(0.25660095 -0.00063003278 -3.0934552e-20)
(0.25610359 -0.00069722485 5.6488384e-20)
(0.25419746 -0.0006651972 3.515888e-20)
(0.24608527 -0.00069788903 -8.4564085e-21)
(0.21752738 -0.00025081848 -8.6050364e-20)
(0.25740382 -3.7852859e-05 -2.0045362e-18)
(0.25740947 -9.5689494e-05 -1.1979239e-18)
(0.25742193 -0.00015257331 6.7009371e-19)
(0.25744104 -0.00021291358 7.1100446e-19)
(0.25746687 -0.00027297291 4.1133545e-19)
(0.25749936 -0.0003332193 2.9512611e-19)
(0.2575377 -0.00039348924 2.7625488e-19)
(0.2575784 -0.00045361302 1.760239e-19)
(0.25760945 -0.00051335259 5.2881226e-20)
(0.25759421 -0.00057212213 1.9376691e-19)
(0.25742635 -0.00062159363 1.0623376e-19)
(0.25678237 -0.00068144217 2.4265285e-19)
(0.25443121 -0.00066103685 -2.3928242e-20)
(0.24490935 -0.00064561644 5.3521341e-20)
(0.21416513 -0.00024776584 -2.0498594e-20)
(0.25830515 -3.7308638e-05 2.6829802e-19)
(0.25831084 -9.4372769e-05 2.1344014e-19)
(0.25832339 -0.00015047649 -9.3518262e-19)
(0.2583426 -0.00020999612 3.8889139e-19)
(0.25836849 -0.00026922145 -6.8052277e-19)
(0.25840083 -0.00032862339 -5.9354093e-20)
(0.25843826 -0.00038802595 7.140178e-19)
(0.25847573 -0.00044722018 4.6598942e-19)
(0.25849727 -0.00050579279 4.1904407e-19)
(0.25845683 -0.00056328987 3.0088072e-19)
(0.25822634 -0.00061131676 2.565741e-19)
(0.25742154 -0.00066417743 2.2273789e-19)
(0.2545896 -0.00065044234 2.9121391e-20)
(0.24365871 -0.00060064453 2.8437589e-20)
(0.21103455 -0.00023378679 7.2892114e-21)
(0.259193 -3.669388e-05 7.5248763e-18)
(0.25919873 -9.2857459e-05 5.3823354e-18)
(0.25921134 -0.00014806165 -1.1283156e-18)
(0.25923061 -0.00020663289 6.4832356e-19)
(0.25925648 -0.0002648995 6.7392479e-19)
(0.25928848 -0.00032332972 1.4665853e-19)
(0.25932457 -0.00038173097 6.3622555e-19)
(0.25935785 -0.00043986308 4.9204475e-19)
(0.25936788 -0.00049714489 4.327582e-19)
(0.25929853 -0.00055310431 2.2692764e-19)
(0.2589988 -0.00059970361 2.5363357e-19)
(0.25801896 -0.00064623361 1.7360362e-19)
(0.25467145 -0.00063499349 1.3445658e-19)
(0.24235144 -0.00056062195 8.5564469e-21)
(0.20813123 -0.0002141088 9.671143e-20)
(0.26006576 -3.6034054e-05 4.3667659e-18)
(0.26007152 -9.1214284e-05 4.1373629e-18)
(0.26008417 -0.00014544281 -1.2725962e-19)
(0.26010346 -0.00020298347 5.1704057e-19)
(0.26012923 -0.00026021093 7.3646722e-19)
(0.2601607 -0.00031758689 2.0075951e-19)
(0.26019497 -0.00037489796 1.2016502e-19)
(0.26022303 -0.0004318747 5.1084566e-19)
(0.26021952 -0.00048779066 1.5873036e-19)
(0.26011767 -0.00054204301 2.0488325e-19)
(0.25974224 -0.00058714002 2.2780505e-19)
(0.25857279 -0.00062806077 2.3903969e-19)
(0.25467557 -0.00061594005 1.702247e-19)
(0.24100379 -0.00052390611 7.1246474e-20)
(0.20544863 -0.00019196316 7.6716564e-20)
(0.2609225 -3.5349633e-05 3.0597195e-18)
(0.26092828 -8.9497285e-05 3.5539919e-18)
(0.26094096 -0.00014270541 5.4877965e-19)
(0.26096023 -0.00019916671 6.4717448e-19)
(0.2609858 -0.00025530722 6.231681e-19)
(0.2610165 -0.00031157921 1.8335123e-19)
(0.26104844 -0.00036774517 -2.4289659e-19)
(0.2610702 -0.00042350433 2.5990766e-19)
(0.26105114 -0.00047801113 4.0104107e-20)
(0.26091327 -0.00053046085 -6.6092943e-20)
(0.2604557 -0.00057393661 1.0329464e-19)
(0.2590814 -0.00060990566 1.3993565e-19)
(0.2546009 -0.00059424331 1.0101319e-19)
(0.23963056 -0.00048937354 1.4335354e-19)
(0.20297926 -0.00016931833 4.1912774e-20)
(0.26176274 -3.4655538e-05 4.0204365e-18)
(0.26176854 -8.7746855e-05 2.6284093e-18)
(0.26178122 -0.00013991377 -5.666774e-19)
(0.26180042 -0.00019527246 8.2118118e-19)
(0.26182568 -0.00025030306 6.1809406e-19)
(0.26185536 -0.00030544608 5.0673495e-19)
(0.26188442 -0.00036043768 1.4083566e-19)
(0.26189878 -0.00041494196 1.4035391e-19)
(0.26186213 -0.00046801762 1.2195606e-19)
(0.2616848 -0.00051862213 -1.9052563e-19)
(0.26113855 -0.00056034346 -3.2964972e-21)
(0.25954316 -0.00059189152 1.458016e-19)
(0.25444651 -0.0005706321 1.2362511e-19)
(0.23824529 -0.00045627776 1.7303137e-19)
(0.20071509 -0.00014735259 1.1396472e-19)
(0.26258633 -3.396306e-05 2.5523409e-18)
(0.26259213 -8.5993779e-05 -1.0449641e-19)
(0.26260479 -0.00013711719 2.8551044e-18)
(0.26262388 -0.00019136968 5.4051518e-19)
(0.2626487 -0.00024528655 -1.2455349e-18)
(0.26267708 -0.00029929459 4.0797302e-19)
(0.26270267 -0.00035310243 3.6466678e-19)
(0.26270848 -0.00040633486 1.7560505e-19)
(0.26265224 -0.00045797299 5.2183026e-20)
(0.26243199 -0.00050672605 -1.2898467e-19)
(0.26179026 -0.00054656345 8.5735298e-20)
(0.25995633 -0.0005740675 2.7250124e-19)
(0.25421177 -0.00054566294 1.4434453e-19)
(0.23686046 -0.00042415213 1.6369901e-19)
(0.19864765 -0.0001267576 1.1618841e-19)
(0.26339335 -3.32814e-05 1.6478894e-18)
(0.26339915 -8.426274e-05 3.6141693e-18)
(0.26341177 -0.0001343551 2.5881092e-18)
(0.26343068 -0.0001875135 6.9128712e-19)
(0.26345493 -0.00024032822 1.010731e-18)
(0.26348171 -0.00029321054 6.2865022e-19)
(0.2635032 -0.00034584107 5.5384111e-19)
(0.2634993 -0.00039780175 2.2530374e-19)
(0.26342146 -0.00044800829 8.9157805e-20)
(0.26315482 -0.00049492779 2.6937852e-20)
(0.26241041 -0.00053276478 1.6720676e-19)
(0.26031893 -0.00055643964 2.3514054e-19)
(0.2538966 -0.000519773 1.8454562e-19)
(0.23548766 -0.00039274464 6.2894196e-20)
(0.19676807 -0.00010792878 3.6915984e-20)
(0.26418413 -3.2618312e-05 3.2112514e-18)
(0.26418991 -8.2574225e-05 4.3707415e-18)
(0.26420246 -0.00013166021 9.8518493e-19)
(0.26422112 -0.0001837496 4.629276e-19)
(0.26424465 -0.00023548648 1.0800684e-18)
(0.2642695 -0.00028726512 7.1523158e-19)
(0.26428624 -0.00033873795 6.6998555e-19)
(0.26427145 -0.00038944152 1.6827464e-19)
(0.26416998 -0.0004382328 1.7681023e-19)
(0.26385341 -0.00048335173 1.7981823e-19)
(0.26299854 -0.00051908846 8.7686531e-20)
(0.26062878 -0.00053898815 4.6756643e-20)
(0.25350187 -0.00049331964 7.6510449e-20)
(0.2341376 -0.00036197183 4.5406007e-20)
(0.19506692 -9.1079354e-05 6.2393648e-20)
(0.26495914 -3.1980324e-05 2.9429173e-18)
(0.2649649 -8.0945387e-05 4.2884441e-18)
(0.26497734 -0.00012905989 1.1662977e-18)
(0.26499568 -0.00018011622 7.1858273e-19)
(0.26501831 -0.00023081031 1.1104061e-18)
(0.26504088 -0.00028151806 3.0515861e-19)
(0.2650522 -0.00033186392 2.0385458e-19)
(0.2650253 -0.00038133727 2.30637e-19)
(0.26489816 -0.00042873842 3.4586284e-20)
(0.26452796 -0.00047209827 -2.643827e-20)
(0.26355413 -0.00050565096 8.3368951e-21)
(0.2608835 -0.00052167636 1.6542809e-20)
(0.25302971 -0.00046660631 8.6520696e-21)
(0.23282016 -0.00033188326 3.6593203e-20)
(0.19353413 -7.6303783e-05 1.1633383e-19)
(0.26571903 -3.1372764e-05 2.4817433e-18)
(0.26572475 -7.9390276e-05 2.3570868e-18)
(0.26573705 -0.00012657658 -7.7753656e-19)
(0.26575498 -0.00017664472 9.2026035e-19)
(0.26577653 -0.00022633987 9.9288519e-19)
(0.26579644 -0.0002760185 4.4821394e-19)
(0.26580163 -0.0003252772 3.7203528e-19)
(0.26576141 -0.00037355728 2.0256887e-19)
(0.26560652 -0.0004196006 1.4566126e-19)
(0.26517878 -0.00046124611 -9.9164565e-20)
(0.26407657 -0.00049254343 9.5802016e-20)
(0.26108058 -0.00050445572 1.4836427e-19)
(0.25248384 -0.00043989699 2.9768344e-20)
(0.23154421 -0.00030262987 1.934854e-20)
(0.19215888 -6.3609729e-05 9.9888282e-20)
(0.26646455 -3.0799672e-05 7.082506e-18)
(0.26647021 -7.7919709e-05 1.285817e-18)
(0.26648233 -0.00012422758 3.7947847e-18)
(0.26649975 -0.00017335929 2.0294892e-18)
(0.26652002 -0.00022210617 -3.8783738e-19)
(0.26653688 -0.0002708044 1.3877781e-18)
(0.26653522 -0.00031902283 1.2595301e-18)
(0.26648042 -0.00036615421 6.8069586e-19)
(0.26629564 -0.00041087723 8.1657065e-19)
(0.26580617 -0.00045085191 -1.0009118e-19)
(0.26456508 -0.00047982866 5.1866841e-19)
(0.26121753 -0.00048726982 4.4921054e-19)
(0.25186982 -0.00041342264 2.0459365e-19)
(0.23031742 -0.00027443216 3.3256418e-19)
(0.1909297 -5.2932832e-05 2.5161362e-19)
(0.26719653 -3.0263686e-05 3.2894548e-18)
(0.26720212 -7.6541022e-05 2.7436675e-19)
(0.26721401 -0.00012202465 3.7489744e-18)
(0.26723083 -0.00017027641 2.4257168e-18)
(0.2672496 -0.00021813033 1.0192998e-18)
(0.26726299 -0.00026590165 1.2765632e-18)
(0.26725373 -0.0003131315 9.6929447e-19)
(0.26718309 -0.00035916374 6.8876494e-19)
(0.26696618 -0.00040260692 7.5350091e-19)
(0.26641044 -0.00044094905 1.7532818e-19)
(0.26501868 -0.00046753758 4.3480871e-19)
(0.26129202 -0.00047005901 3.6614807e-19)
(0.25119506 -0.00038738325 3.2090601e-19)
(0.2291461 -0.00024754676 2.9698537e-19)
(0.18983455 -4.4145097e-05 2.0812321e-19)
(0.26791589 -2.9765991e-05 -9.2782155e-19)
(0.26792138 -7.5257931e-05 1.3288212e-19)
(0.26793299 -0.00011997376 5.9929814e-19)
(0.26794908 -0.00016740448 1.4390948e-18)
(0.26796613 -0.00021442312 1.5736522e-18)
(0.26797562 -0.00026132351 5.9739868e-19)
(0.267958 -0.00030761887 2.2620078e-19)
(0.26787018 -0.00035260381 2.3956951e-19)
(0.2676188 -0.00039480804 4.5169184e-20)
(0.2669918 -0.00043154706 7.8201227e-20)
(0.26543617 -0.00045566686 1.2912696e-19)
(0.2613021 -0.00045276642 2.6882412e-20)
(0.2504687 -0.00036194908 1.9330727e-19)
(0.22803501 -0.00022223217 5.5478638e-21)
(0.18886112 -3.7064085e-05 -5.3405228e-20)
(0.26862352 -2.9306383e-05 5.7706494e-18)
(0.2686289 -7.4070661e-05 1.5568377e-18)
(0.26864017 -0.00011807532 2.7280817e-18)
(0.26865542 -0.00016474412 2.0176727e-18)
(0.26867049 -0.00021098532 1.6495086e-18)
(0.26867563 -0.000257071 1.2024759e-18)
(0.26864885 -0.00030248606 1.0211028e-18)
(0.26854251 -0.00034647515 1.0365815e-18)
(0.26825414 -0.00038747924 4.2695857e-19)
(0.26755035 -0.00042263245 -1.5094664e-19)
(0.2658161 -0.00044417905 3.6810326e-19)
(0.26124652 -0.00043534493 2.9785984e-19)
(0.24970133 -0.00033726333 4.0431738e-19)
(0.22698727 -0.00019871676 2.6612556e-19)
(0.18799711 -3.1466396e-05 1.0068315e-19)
(0.26932033 -2.8883461e-05 2.9433845e-18)
(0.26932558 -7.2976356e-05 -1.3441739e-18)
(0.26933645 -0.00011632481 9.1287248e-19)
(0.26935072 -0.00016228909 1.2956187e-18)
(0.26936357 -0.0002078089 1.5825735e-18)
(0.26936389 -0.00025313433 1.0368278e-18)
(0.26932713 -0.0002977213 1.1044827e-18)
(0.26920083 -0.00034076321 1.0428619e-18)
(0.2688728 -0.00038060158 7.2049299e-19)
(0.26808605 -0.00041417146 3.4151876e-19)
(0.26615679 -0.00043300583 1.6644672e-19)
(0.26112496 -0.00041776402 3.180525e-19)
(0.24890441 -0.00031344658 3.9546394e-19)
(0.22600436 -0.00017717261 3.3955965e-19)
(0.18723056 -2.7105586e-05 2.9299779e-19)
(0.27000719 -2.8494911e-05 2.996993e-18)
(0.27001228 -7.1969743e-05 3.0424117e-18)
(0.27002267 -0.00011471384 2.2431194e-18)
(0.27003583 -0.00016002771 1.8390205e-18)
(0.27004618 -0.00020487885 8.7887706e-19)
(0.27004119 -0.00024949516 1.2944351e-18)
(0.2699936 -0.00029330262 1.178473e-18)
(0.26984584 -0.00033544136 9.0548383e-19)
(0.26947524 -0.00037414208 5.8687499e-19)
(0.2685986 -0.00040611399 1.6099625e-19)
(0.26645635 -0.00042205446 2.0878206e-19)
(0.2609383 -0.00040001524 3.8749163e-19)
(0.24808975 -0.00029060213 4.6838568e-19)
(0.22508629 -0.00015769827 3.4391607e-19)
(0.18655015 -2.3732128e-05 3.0495448e-19)
(0.27068489 -2.8137826e-05 7.8279298e-18)
(0.2706898 -7.1043906e-05 4.9409486e-18)
(0.27069965 -0.00011323138 4.4031704e-18)
(0.27071153 -0.00015794462 3.2136828e-18)
(0.2707191 -0.00020217544 1.4654115e-18)
(0.27070829 -0.00024612933 2.3141021e-18)
(0.27064898 -0.00028920108 2.1527887e-18)
(0.27047818 -0.00033047455 1.3391839e-18)
(0.27006181 -0.00036805783 9.8375901e-19)
(0.26908753 -0.00039839812 6.5356757e-20)
(0.26671278 -0.00041121648 7.0709601e-19)
(0.26068881 -0.00038211515 7.2512853e-19)
(0.24726882 -0.00026882041 7.4428131e-19)
(0.22423175 -0.00014031231 6.4385226e-19)
(0.18594537 -2.1112149e-05 4.1102605e-19)
(0.27135418 -2.7809012e-05 -3.5075034e-19)
(0.27135887 -7.0191043e-05 3.7202124e-18)
(0.2713681 -0.00011186497 3.036267e-18)
(0.27137855 -0.00015602247 1.8277636e-18)
(0.27138303 -0.00019967637 2.4079833e-18)
(0.27136587 -0.00024300949 1.4469844e-18)
(0.27129391 -0.00028538386 1.6013935e-18)
(0.27109836 -0.000325823 1.0319604e-18)
(0.27063272 -0.00036230005 6.1696832e-19)
(0.26955206 -0.00039095432 3.0290599e-19)
(0.26692403 -0.00040037784 4.3279694e-19)
(0.26038022 -0.00036410565 3.3106145e-19)
(0.24645221 -0.00024818088 4.3400222e-19)
(0.22343841 -0.00012495718 3.1704591e-19)
(0.18540672 -1.904183e-05 3.0965966e-19)
(0.27201571 -2.7505237e-05 -3.0698023e-19)
(0.27202015 -6.9403101e-05 3.7915332e-18)
(0.27202866 -0.00011060176 2.7223373e-18)
(0.27203751 -0.00015424332 2.4919974e-18)
(0.2720386 -0.00019735859 2.6307883e-18)
(0.27201452 -0.00024010733 1.6647729e-18)
(0.27192892 -0.00028181693 1.2438971e-18)
(0.2717068 -0.00032144525 1.15937e-18)
(0.27118802 -0.00035681747 4.6350762e-19)
(0.2699912 -0.00038370884 2.8166455e-19)
(0.26708822 -0.000389429 2.472125e-19)
(0.26001771 -0.00034605163 3.7054645e-19)
(0.24564917 -0.00022875086 3.1618755e-19)
(0.22270325 -0.00011151162 3.476852e-19)
(0.18492573 -1.7355846e-05 2.38496e-19)
(0.27267005 -2.7223405e-05 1.7105686e-18)
(0.27267421 -6.8672271e-05 2.8498725e-19)
(0.27268192 -0.00010942927 4.2026164e-19)
(0.27268898 -0.00015258973 2.5575659e-18)
(0.27268634 -0.00019519966 2.2201302e-18)
(0.27265476 -0.00023739528 1.5273893e-18)
(0.27255447 -0.00027846699 9.4772921e-19)
(0.2723038 -0.00031730047 9.253599e-19)
(0.27172757 -0.00035155884 4.6712285e-19)
(0.27040369 -0.00037658611 7.1316114e-19)
(0.26720375 -0.00037827412 2.9435452e-19)
(0.25960771 -0.00032803714 4.4515105e-19)
(0.24486735 -0.00021058184 2.3844393e-19)
(0.22202277 -9.9808144e-05 4.7684298e-19)
(0.18449494 -1.5929487e-05 2.5024188e-19)
(0.27331772 -2.6960668e-05 3.132241e-18)
(0.27332155 -6.7991277e-05 4.1194873e-18)
(0.27332837 -0.00010833587 2.8289929e-18)
(0.27333345 -0.00015104547 2.6796557e-18)
(0.27332673 -0.00019317869 7.2852238e-19)
(0.27328702 -0.00023484751 1.0951636e-18)
(0.27317093 -0.0002753027 1.1920646e-18)
(0.27288957 -0.0003133499 9.389429e-19)
(0.27225107 -0.00034647443 6.8824165e-19)
(0.27078808 -0.00036951039 6.0506379e-19)
(0.26726952 -0.00036683813 4.1633983e-19)
(0.25915765 -0.0003101602 3.9945794e-19)
(0.24411266 -0.00019370464 3.2752753e-19)
(0.22139331 -8.9652411e-05 4.3004267e-19)
(0.1841079 -1.4675695e-05 3.3674268e-19)
(0.27395916 -2.6714477e-05 8.7576213e-18)
(0.27396262 -6.7353546e-05 5.7038329e-18)
(0.27396843 -0.00010731105 5.316249e-18)
(0.27397134 -0.00014959584 3.7957259e-18)
(0.27396016 -0.00019127672 1.4291357e-18)
(0.27391168 -0.00023244056 1.9958086e-18)
(0.2737786 -0.00027229533 1.9709364e-18)
(0.27346419 -0.00030955758 1.5860072e-18)
(0.27275806 -0.00034151677 1.3474435e-18)
(0.27114274 -0.00036240704 2.4605887e-19)
(0.26728512 -0.00035507155 5.723845e-19)
(0.25867552 -0.00029252749 6.7948875e-19)
(0.24338933 -0.00017812521 8.0200352e-19)
(0.22081116 -8.0841199e-05 6.45716e-19)
(0.18375901 -1.3538671e-05 4.843741e-19)
(0.27459475 -2.6482592e-05 3.1331356e-18)
(0.2745978 -6.6753265e-05 3.9970721e-18)
(0.27460249 -0.00010634551 3.5388954e-18)
(0.274603 -0.0001482278 2.1428431e-18)
(0.27458699 -0.00018947692 2.8290991e-18)
(0.27452902 -0.00023015346 1.3783854e-18)
(0.27437767 -0.00026941896 9.772974e-19)
(0.27402763 -0.00030589064 8.4143692e-19)
(0.27324789 -0.00033664079 8.4282575e-19)
(0.27146593 -0.00035520381 4.4814684e-19)
(0.26725094 -0.00034295249 3.3691844e-19)
(0.25816956 -0.0002752486 3.6738757e-19)
(0.24270004 -0.00016382255 5.0468154e-19)
(0.22027275 -7.3177119e-05 2.3591913e-19)
(0.18344349 -1.2486094e-05 2.3785922e-19)
(0.27522481 -2.6263074e-05 1.8256621e-18)
(0.27522741 -6.6185373e-05 3.2937071e-18)
(0.27523087 -0.00010543114 2.9582636e-18)
(0.27522875 -0.00014693 2.1689537e-18)
(0.27520748 -0.00018776456 2.6422871e-18)
(0.2751393 -0.00022796774 1.50089e-18)
(0.27496829 -0.00026665042 1.1335967e-18)
(0.27457978 -0.00030231922 7.7913293e-19)
(0.27371976 -0.00033180361 5.5137253e-19)
(0.27175586 -0.00034783258 5.2829613e-19)
(0.26716832 -0.00033048645 4.5529906e-19)
(0.25764777 -0.00025843061 3.571433e-19)
(0.24204621 -0.00015074941 3.8173188e-19)
(0.21977469 -6.6478894e-05 2.563803e-19)
(0.18315725 -1.1501427e-05 2.3642213e-19)
(0.27584964 -2.6054265e-05 1.5273671e-18)
(0.27585173 -6.5645517e-05 2.1795357e-19)
(0.27585383 -0.00010456099 6.5706782e-19)
(0.27584885 -0.00014569264 2.2909419e-18)
(0.27582189 -0.00018612689 2.5574004e-18)
(0.2757427 -0.00022586726 1.64135e-18)
(0.27555052 -0.00026396906 1.2866559e-18)
(0.27512041 -0.00029881616 6.8067102e-19)
(0.27417268 -0.00032696406 5.6505389e-19)
(0.27201082 -0.00034023145 6.2754348e-19)
(0.26703956 -0.00031770399 2.8000878e-19)
(0.25711762 -0.00024217268 3.991542e-19)
(0.24142819 -0.00013883592 4.340733e-19)
(0.21931381 -6.0587314e-05 4.217671e-19)
(0.18289682 -1.0577477e-05 3.1634334e-19)
(0.27646948 -2.5854752e-05 4.977498e-18)
(0.27647102 -6.5129986e-05 4.6032447e-18)
(0.27647162 -0.0001037291 2.5813462e-18)
(0.27646352 -0.00014450731 2.2886621e-18)
(0.2764304 -0.0001845529 1.5959741e-18)
(0.27633935 -0.00022383792 1.7985208e-18)
(0.27612438 -0.00026135649 1.2097944e-18)
(0.27564919 -0.00029535666 7.9461235e-19)
(0.27460555 -0.00032208226 5.9330723e-19)
(0.27222923 -0.00033234721 5.500364e-19)
(0.26686787 -0.0003046572 2.1448463e-19)
(0.25658579 -0.00022656126 4.4344462e-19)
(0.2408456 -0.00012799526 4.9123675e-19)
(0.21888719 -5.5367374e-05 3.8830937e-19)
(0.18265925 -9.7115857e-06 3.2068036e-19)
(0.27708455 -2.5663346e-05 9.1478437e-18)
(0.27708548 -6.4635634e-05 5.2850344e-18)
(0.27708444 -0.00010293041 5.2274264e-18)
(0.27707294 -0.00014336687 3.5929148e-18)
(0.27703318 -0.00018303315 1.5489316e-18)
(0.27692935 -0.00022186744 2.5210524e-18)
(0.2766898 -0.00025879623 1.9734199e-18)
(0.27616569 -0.00029191777 1.4391863e-18)
(0.27501711 -0.00031711916 9.8122472e-19)
(0.27240981 -0.00032413774 5.0857495e-19)
(0.26665728 -0.00029141517 7.6416414e-19)
(0.256058 -0.00021166603 8.7088636e-19)
(0.24029748 -0.00011813047 7.6705409e-19)
(0.21849214 -5.0707649e-05 6.0208627e-19)
(0.18244204 -8.9025382e-06 4.830391e-19)
(0.27769504 -2.5479046e-05 1.7997688e-18)
(0.27769529 -6.4159809e-05 4.7224258e-18)
(0.27769247 -0.00010216065 4.1606603e-18)
(0.27767729 -0.00014226521 2.2259598e-18)
(0.27763035 -0.0001815595 2.6266084e-18)
(0.27751275 -0.00021994504 1.2824292e-18)
(0.27724666 -0.00025627339 1.1746793e-18)
(0.27666938 -0.00028847797 7.0700103e-19)
(0.275406 -0.00031203634 6.2749025e-19)
(0.27255164 -0.00031557421 4.6070615e-19)
(0.26641246 -0.00027805926 4.0484678e-19)
(0.25553894 -0.00019753711 5.0216173e-19)
(0.23978254 -0.00010914113 3.1628291e-19)
(0.2181262 -4.6517867e-05 4.1076207e-19)
(0.18224308 -8.1488591e-06 2.9478724e-19)
(0.27830111 -2.5301007e-05 1.0184198e-18)
(0.27830062 -6.3700272e-05 4.4764345e-18)
(0.27829586 -0.00010141621 3.365022e-18)
(0.27827669 -0.00014119717 2.1600273e-18)
(0.278222 -0.00018012494 2.5771882e-18)
(0.27808956 -0.00021806117 1.3719044e-18)
(0.2777948 -0.00025377437 1.2307235e-18)
(0.27715962 -0.0002850166 9.058735e-19)
(0.27577079 -0.0003067961 5.8779036e-19)
(0.27265429 -0.00030664249 4.6911883e-19)
(0.26613848 -0.00026467814 4.6143926e-19)
(0.2550323 -0.00018420369 4.620289e-19)
(0.23929925 -0.00010092916 4.054712e-19)
(0.21778713 -4.2725648e-05 5.3454129e-19)
(0.18206056 -7.4481459e-06 3.4775264e-19)
(0.27890291 -2.5128517e-05 -3.6876227e-19)
(0.27890162 -6.325513e-05 7.2897755e-19)
(0.27889474 -0.00010069401 7.6745753e-19)
(0.27887126 -0.00014015827 2.5976653e-18)
(0.27880821 -0.00017872332 1.9797704e-18)
(0.27865976 -0.00021620724 1.6288113e-18)
(0.27833397 -0.00025128651 9.8742943e-19)
(0.27763569 -0.00028151345 1.1435411e-18)
(0.27611001 -0.00030136189 7.5688529e-19)
(0.2727179 -0.00029734386 8.0651834e-19)
(0.26584062 -0.00025136317 5.7968363e-19)
(0.25454084 -0.00017167439 4.6150286e-19)
(0.23884602 -9.3403161e-05 5.0114523e-19)
(0.21747286 -3.9273091e-05 4.8595147e-19)
(0.18189296 -6.7970369e-06 3.7768647e-19)
(0.27950056 -2.4960973e-05 -3.0026191e-18)
(0.2794984 -6.2822776e-05 3.3636872e-18)
(0.27948922 -9.9991434e-05 1.3345474e-18)
(0.27946108 -0.00013914467 1.1273486e-18)
(0.279389 -0.00017734922 1.8651315e-18)
(0.27922329 -0.00021437542 6.1432275e-19)
(0.27886389 -0.00024879793 1.7793591e-19)
(0.27809674 -0.00027794829 3.1142761e-19)
(0.27642222 -0.00029569921 4.8809283e-19)
(0.27274323 -0.00028769475 6.8075104e-19)
(0.2655241 -0.00023820407 2.322976e-19)
(0.25406651 -0.00015993913 6.6612365e-20)
(0.23842119 -8.6481053e-05 1.225169e-19)
(0.21718151 -3.6113612e-05 1.3489276e-19)
(0.18173897 -6.1914748e-06 1.8335672e-19)
(0.28009418 -2.4797856e-05 2.115799e-18)
(0.28009107 -6.2401834e-05 3.4711052e-18)
(0.28007941 -9.9306214e-05 3.2413556e-18)
(0.28004623 -0.00013815299 1.0757645e-18)
(0.27996442 -0.00017599777 2.2260253e-18)
(0.27978006 -0.00021255838 1.027894e-18)
(0.2793842 -0.00024629715 4.5733123e-19)
(0.27854186 -0.00027430051 2.0833839e-19)
(0.27670605 -0.00028977676 4.2535816e-19)
(0.27273166 -0.0002777256 7.0507163e-19)
(0.26519392 -0.00022528491 2.5874123e-19)
(0.25361059 -0.00014897206 2.4969321e-19)
(0.23802316 -8.0091229e-05 2.4399962e-19)
(0.21691137 -3.3209337e-05 1.7660142e-19)
(0.18159747 -5.6270985e-06 1.7935087e-19)
(0.28068388 -2.4638721e-05 3.4764468e-18)
(0.28067974 -6.1991114e-05 4.7997036e-18)
(0.28066539 -9.8636371e-05 3.6991422e-18)
(0.28062676 -0.00013718023 1.651187e-18)
(0.28053445 -0.00017466448 1.7971716e-18)
(0.28032993 -0.00021074911 1.1545245e-18)
(0.27989449 -0.00024377295 6.2450865e-19)
(0.27897002 -0.0002705489 5.2434922e-19)
(0.27696025 -0.00028356786 3.1084644e-19)
(0.27268518 -0.00026747916 5.6112328e-19)
(0.26485469 -0.00021268092 1.3156467e-19)
(0.25317379 -0.00013873548 2.2240873e-19)
(0.23765034 -7.4172512e-05 2.9049063e-19)
(0.2166609 -3.0529023e-05 1.3361939e-19)
(0.18146749 -5.0995616e-06 1.9801748e-19)
(0.28126974 -2.4483171e-05 2.9934321e-18)
(0.28126448 -6.1589565e-05 6.7136109e-18)
(0.28124722 -9.7980134e-05 3.7365156e-18)
(0.28120271 -0.00013622363 8.6850511e-19)
(0.28109906 -0.00017334514 4.4810725e-19)
(0.28087275 -0.00020894082 1.393191e-19)
(0.28039427 -0.00024121405 9.5551504e-20)
(0.27938014 -0.0002666715 -2.4182059e-19)
(0.27718382 -0.0002770519 -2.8630658e-19)
(0.27260633 -0.00025700811 -7.6606768e-20)
(0.26451052 -0.00020045586 -2.3076713e-19)
(0.25275643 -0.00012918377 -5.5533873e-19)
(0.23730122 -6.867327e-05 -3.8272528e-19)
(0.21642866 -2.8046555e-05 -3.0071767e-19)
(0.18134818 -4.6048113e-06 -2.5211616e-21)
(0.28185185 -2.4330854e-05 3.8534316e-18)
(0.28184539 -6.1196248e-05 4.3099489e-18)
(0.28182498 -9.7335904e-05 3.272498e-18)
(0.28177412 -0.00013528067 1.3628462e-18)
(0.28165822 -0.00017203573 6.4595754e-19)
(0.2814083 -0.00020712676 5.2941851e-19)
(0.28088299 -0.00023860898 -2.248288e-20)
(0.27977106 -0.00026264569 -2.3440638e-19)
(0.27737601 -0.00027021574 -3.1936147e-19)
(0.27249806 -0.00024637257 -1.1770045e-19)
(0.26416497 -0.0001886604 -2.0877363e-19)
(0.2523585 -0.00012026722 -5.1771629e-19)
(0.23697438 -6.3550121e-05 -5.9380719e-19)
(0.21621337 -2.5739809e-05 -2.891653e-19)
(0.18123881 -4.1392006e-06 -9.6162736e-20)
(0.28243029 -2.4181446e-05 3.9232909e-18)
(0.28242252 -6.0810305e-05 4.8886094e-18)
(0.28239871 -9.6702194e-05 3.6799527e-18)
(0.28234099 -0.00013434891 2.7655965e-18)
(0.28221186 -0.00017073227 1.9344068e-18)
(0.28193636 -0.00020530012 1.3663031e-18)
(0.28136003 -0.00023594578 8.5825221e-19)
(0.2801416 -0.00025844845 5.3204094e-19)
(0.27753642 -0.00026305461 4.1150309e-19)
(0.27236366 -0.00023563725 -1.1129006e-19)
(0.26382105 -0.00017733135 3.0224255e-19)
(0.25197976 -0.00011193519 3.271786e-19)
(0.23666845 -5.8766484e-05 -2.8705446e-20)
(0.21601387 -2.3589913e-05 6.5530121e-20)
(0.1811387 -3.6995945e-06 4.3326035e-20)
(0.28300512 -2.4034645e-05 2.5976772e-18)
(0.28299594 -6.0430935e-05 3.6752953e-18)
(0.28296845 -9.6077593e-05 3.473408e-18)
(0.28290332 -0.00013342601 2.751428e-18)
(0.28275987 -0.00016943077 1.9454504e-18)
(0.28245663 -0.00020345397 9.6118028e-19)
(0.28182471 -0.00023321186 7.9567959e-19)
(0.28049056 -0.0002540569 3.8152427e-19)
(0.27766504 -0.00025557284 4.4961912e-19)
(0.27220658 -0.00022486879 3.8482372e-19)
(0.26348123 -0.0001664919 2.6878785e-19)
(0.25161982 -0.00010413862 2.5291823e-19)
(0.23638216 -5.4291224e-05 2.8290899e-19)
(0.21582908 -2.158065e-05 1.7962134e-19)
(0.18104728 -3.2833364e-06 5.7663794e-20)
(0.2835764 -2.3890164e-05 3.9311018e-18)
(0.28356569 -6.0057374e-05 2.8708122e-18)
(0.28353424 -9.5460733e-05 3.2851871e-18)
(0.2834611 -0.00013250961 2.8615687e-18)
(0.28330215 -0.00016812718 1.5160127e-18)
(0.28296879 -0.00020158113 9.950432e-19)