/*--------------------------------*- C++ -*----------------------------------*\
| =========                 |                                                 |
| \\      /  F ield         | OpenFOAM: The Open Source CFD Toolbox           |
|  \\    /   O peration     | Version:  2506                                  |
|   \\  /    A nd           | Website:  www.openfoam.com                      |
|    \\/     M anipulation  |                                                 |
\*---------------------------------------------------------------------------*/
FoamFile
{
    version     2.0;
    format      ascii;
    arch        "LSB;label=32;scalar=64";
    class       volScalarField;
    location    "13000/water";
    object      alphat;
}
// * * * * * * * * * * * * * * * * * * * * * * * * * * * * * * * * * * * * * //

dimensions      [1 -1 -1 0 0 0 0];

internalField   nonuniform List<scalar> 
2600
(
0.040489031
0.04048893
0.040488932
0.040488969
0.04048893
0.040488424
0.040485257
0.04046703
0.040362559
0.039762099
0.036475623
0.024118064
0.014862723
0.039376404
0.039376463
0.039376584
0.03937667
0.03937627
0.039373342
0.039357935
0.03928206
0.038918252
0.037247647
0.030707814
0.017504579
0.016810247
0.03845331
0.038453299
0.038453385
0.038453188
0.038451259
0.038441479
0.038397507
0.038208927
0.037432867
0.034484227
0.025768479
0.01464355
0.017680736
0.037674097
0.037673994
0.037673876
0.037672833
0.03766736
0.037643826
0.037549741
0.037190974
0.035896577
0.031717985
0.022022178
0.013507107
0.017935556
0.037006829
0.037006634
0.03700605
0.037003229
0.036991211
0.03694503
0.036777672
0.036201229
0.034343725
0.029136321
0.019390213
0.01332192
0.01787019
0.036428097
0.036427705
0.036426239
0.036420305
0.036397905
0.036319194
0.03605724
0.035231095
0.03281421
0.026833154
0.017684561
0.01376901
0.017658004
0.035920433
0.035919673
0.03591673
0.035905979
0.035868817
0.035747845
0.035374204
0.034281783
0.031338745
0.024847734
0.016751764
0.014701365
0.017395975
0.035470606
0.03546924
0.035464057
0.035446499
0.035390052
0.035218253
0.034721129
0.033357857
0.029935921
0.02320089
0.016491475
0.016024754
0.017137191
0.035068412
0.03506614
0.035057811
0.035031314
0.034951338
0.034722033
0.034094772
0.032463227
0.028616047
0.021918168
0.016839593
0.01764423
0.016909598
0.034705855
0.034702323
0.034689851
0.034652315
0.034545228
0.034254009
0.03349406
0.031599319
0.027389013
0.021039007
0.017742707
0.01944683
0.016725717
0.034376582
0.0343714
0.034353768
0.03430331
0.034166516
0.033811296
0.032918607
0.030765036
0.026274288
0.020612421
0.019134169
0.021310298
0.0165878
0.034075484
0.034068256
0.034044512
0.033979658
0.033811775
0.033392551
0.032367695
0.029958513
0.025310236
0.020682513
0.02092045
0.023125093
0.01649134
0.03379842
0.033788771
0.033758129
0.033677993
0.033478994
0.032997353
0.031839672
0.029180919
0.024557973
0.021270679
0.022983308
0.024813262
0.016428198
0.033542011
0.033529635
0.033491576
0.033396025
0.033167279
0.032625685
0.031331905
0.02844226
0.024095308
0.02236241
0.02519592
0.026333969
0.016389375
0.033303501
0.033288203
0.033242589
0.033132389
0.0328766
0.032277488
0.030841496
0.027768047
0.024001078
0.023903802
0.027443847
0.027676786
0.016366908
0.033080659
0.033062404
0.03300959
0.032886524
0.032607559
0.031952311
0.030367144
0.027204004
0.02433601
0.025808535
0.029640409
0.028850257
0.01635471
0.032871707
0.032850677
0.032791627
0.032658586
0.032361164
0.031649138
0.029912405
0.026815113
0.025128026
0.027972561
0.031731261
0.029871995
0.016348606
0.032675278
0.032651931
0.032588332
0.032449362
0.032138606
0.031366538
0.029490156
0.026676983
0.02636662
0.030291378
0.033689748
0.030762439
0.016345973
0.032490392
0.032465523
0.0323999
0.032260198
0.031941021
0.031103392
0.02912715
0.026861559
0.028006318
0.032674377
0.035508202
0.031541613
0.016345289
0.03231644
0.032291251
0.032227075
0.032092906
0.0317693
0.030860474
0.028866522
0.027422392
0.02997661
0.035052625
0.037189756
0.032227633
0.016345749
0.032153193
0.032129365
0.032071151
0.03194966
0.031623986
0.030643052
0.028765901
0.028384666
0.032194873
0.037379728
0.038742713
0.03283612
0.016346971
0.032000817
0.031980587
0.031933965
0.031832869
0.031505423
0.030464306
0.028890209
0.029742268
0.034578895
0.039628039
0.040177388
0.03338011
0.016348812
0.031859898
0.031846136
0.031817892
0.031745018
0.031414333
0.030348688
0.029300796
0.031461309
0.037056243
0.041783221
0.041504536
0.033870256
0.016351246
0.031731488
0.031727775
0.031725824
0.031688525
0.031353059
0.03033369
0.030044463
0.033487924
0.03956915
0.043839374
0.042734578
0.034315152
0.016354289
0.031617156
0.031627852
0.031661123
0.031665646
0.031327616
0.030468391
0.031145812
0.035757862
0.042075207
0.045795593
0.043877213
0.034721702
0.016357969
0.031519059
0.031549348
0.031627545
0.031678558
0.031350386
0.030808117
0.032604584
0.038205563
0.044545297
0.047653852
0.044941233
0.035095454
0.016362308
0.03144002
0.031495925
0.031629136
0.031729781
0.031442847
0.031406233
0.034397783
0.040771061
0.046960464
0.04941777
0.045934484
0.035440886
0.01636731
0.031383622
0.031471952
0.031670108
0.031823119
0.03163718
0.032305488
0.036485151
0.043403916
0.049308923
0.051091864
0.046863895
0.035761637
0.016372969
0.03135431
0.031482519
0.031754745
0.031965285
0.031975485
0.033531429
0.038816233
0.046064361
0.051583768
0.052681066
0.047735561
0.036060692
0.016379266
0.031357497
0.031533412
0.031887427
0.032168113
0.032505946
0.03508941
0.041337345
0.04872249
0.053781403
0.054190403
0.048554837
0.036340517
0.016386174
0.03139966
0.031631057
0.032072922
0.032450916
0.033276475
0.036965352
0.043997168
0.051356522
0.055900493
0.055624809
0.04932644
0.036603249
0.016393659
0.031488426
0.031782428
0.03231711
0.0328421
0.034327511
0.039129415
0.046750331
0.0539509
0.057941207
0.056988872
0.050054079
0.036848497
0.016401672
0.031632621
0.031994973
0.032628309
0.033378944
0.035685988
0.0415413
0.049558966
0.056494684
0.059904719
0.058286905
0.050741228
0.037078062
0.016410157
0.031842264
0.03227662
0.033019162
0.03410484
0.037361929
0.044155836
0.052392715
0.058980326
0.061792816
0.059522758
0.051390027
0.037293993
0.016419061
0.032128529
0.032636021
0.033508771
0.03506418
0.03934811
0.046927806
0.055227859
0.061402783
0.063607643
0.060699937
0.052002677
0.037497696
0.016428334
0.032503669
0.033083204
0.034124296
0.036296099
0.041622403
0.049815358
0.058046135
0.063758861
0.065351546
0.061821638
0.052582581
0.037690194
0.016437945
0.032981001
0.033630795
0.034901057
0.037828731
0.044151814
0.052781868
0.060833584
0.066046678
0.0670267
0.0628895
0.053132468
0.03787253
0.016447872
0.033575093
0.034295803
0.035880363
0.039675447
0.046897153
0.055796502
0.063579597
0.06826533
0.068635567
0.063907354
0.053654301
0.038045473
0.016458088
0.034302366
0.035101602
0.037105065
0.041833717
0.049817342
0.05883393
0.06627615
0.07041439
0.070179106
0.064878396
0.054149993
0.038209783
0.016468569
0.035182275
0.036079351
0.038613757
0.044286499
0.05287273
0.061873592
0.06891717
0.072494021
0.071660185
0.065805207
0.054621163
0.038366084
0.016479288
0.036239039
0.037267807
0.040435149
0.047005429
0.056027169
0.064898909
0.07149802
0.074503814
0.073081478
0.066690096
0.055069324
0.038514916
0.016490218
0.037503413
0.038710783
0.042584038
0.049954855
0.05924893
0.067896457
0.074015176
0.076444636
0.074445471
0.067535115
0.055495817
0.038656741
0.016501334
0.039013494
0.040452261
0.045059709
0.053095824
0.062510839
0.070855327
0.076465317
0.078317605
0.075754299
0.068342163
0.055901824
0.038791952
0.01651261
0.040813295
0.04253015
0.0478468
0.05638929
0.0657898
0.073766499
0.078846458
0.080124245
0.077009862
0.069112934
0.056288382
0.03892088
0.016524019
0.042948303
0.044970309
0.050918042
0.059798369
0.069066312
0.07662196
0.081156909
0.081865787
0.078213919
0.069848938
0.056656392
0.039043803
0.016535536
0.045458357
0.047782274
0.05423793
0.063289375
0.072323479
0.079415197
0.083396334
0.08354332
0.079368013
0.070551486
0.057006626
0.039160948
0.016547136
0.048369468
0.050957541
0.057766443
0.066832226
0.075546544
0.082140734
0.085564125
0.085157801
0.080473479
0.071221705
0.057339733
0.039272495
0.016558794
0.051686894
0.054470389
0.061462095
0.07039991
0.07872198
0.084794902
0.087659687
0.086709984
0.081531426
0.07186053
0.057656246
0.039378583
0.016570485
0.055391462
0.058280528
0.065283661
0.073967534
0.081839602
0.087374101
0.089682319
0.088200391
0.082542725
0.072468714
0.057956586
0.039479308
0.016582185
0.059440029
0.062336494
0.069190794
0.077514001
0.084890568
0.089874875
0.091631142
0.089629279
0.083508002
0.07304682
0.058241061
0.039574724
0.016593867
0.063769477
0.066579726
0.073146299
0.081021475
0.087866735
0.092293805
0.093505047
0.09099662
0.084427625
0.073595225
0.058509873
0.039664846
0.016605507
0.068304176
0.070949141
0.077116128
0.084473717
0.090760486
0.094627434
0.095302674
0.092302092
0.085301707
0.074114121
0.058763114
0.03974965
0.016617076
0.072963979
0.075384355
0.081068538
0.087855784
0.093564625
0.09687225
0.097022411
0.093545086
0.086130111
0.074603517
0.059000773
0.039829074
0.016628545
0.077671239
0.079828375
0.084974048
0.091153826
0.096272328
0.099024707
0.098662432
0.094724728
0.086912464
0.075063251
0.059222741
0.039903018
0.016639885
0.082355873
0.084229596
0.088805542
0.094355003
0.098877157
0.10108129
0.10022076
0.095839933
0.087648191
0.075493009
0.059428817
0.03997135
0.016651062
0.086958235
0.088543099
0.092538494
0.097447498
0.10137312
0.10303863
0.10169536
0.096889471
0.088336559
0.075892349
0.059618726
0.040033908
0.016662041
0.091430116
0.092731288
0.096151255
0.10042062
0.10375478
0.10489358
0.10308425
0.097872056
0.08897674
0.076260742
0.059792136
0.040090513
0.016672786
0.0957344
0.096763959
0.099625292
0.10326492
0.10601734
0.10664339
0.10438564
0.09878645
0.089567882
0.076597616
0.059948686
0.040140973
0.016683256
0.099843945
0.10061794
0.10294535
0.10597238
0.10815677
0.10828579
0.10559802
0.099631566
0.090109191
0.076902411
0.060088013
0.040185101
0.016693412
0.10374012
0.10427643
0.10609948
0.10853648
0.11016994
0.10981913
0.1067203
0.10040657
0.090600013
0.07717464
0.060209791
0.040222726
0.016703211
0.10741128
0.1077282
0.10907892
0.11095233
0.11205463
0.1112424
0.1077519
0.10111098
0.091039915
0.07741394
0.060313762
0.040253708
0.016712613
0.11085138
0.11096673
0.11187792
0.11321663
0.11380962
0.11255536
0.10869278
0.10174473
0.09142875
0.077620132
0.06039977
0.040277955
0.016721579
0.11405875
0.11398941
0.11449343
0.11532767
0.1154347
0.1137585
0.10954354
0.10230823
0.091766711
0.07779326
0.060467794
0.040295434
0.01673007
0.11703511
0.11679673
0.11692478
0.11728526
0.11693062
0.11485305
0.11030538
0.10280237
0.092054367
0.077933627
0.060517966
0.040306183
0.016738054
0.11978471
0.11939172
0.11917335
0.11909056
0.11829905
0.11584097
0.11098008
0.10322856
0.092292678
0.078041817
0.06055059
0.040310314
0.016745503
0.12231373
0.12177929
0.12124221
0.12074596
0.11954254
0.11672486
0.11157001
0.10358869
0.092482995
0.078118694
0.060566146
0.040308021
0.016752392
0.12462974
0.12396584
0.12313585
0.12225494
0.12066436
0.11750793
0.11207804
0.10388508
0.09262704
0.078165403
0.06056529
0.040299576
0.016758707
0.12674128
0.12595888
0.12485986
0.12362184
0.12166847
0.11819389
0.1125075
0.10412049
0.09272687
0.078183344
0.060548842
0.040285323
0.016764435
0.12865762
0.12776666
0.12642069
0.12485178
0.12255938
0.11878692
0.11286209
0.10429797
0.092784842
0.078174149
0.060517773
0.040265672
0.016769575
0.13038842
0.12939801
0.12782544
0.12595045
0.12334204
0.11929151
0.11314582
0.10442089
0.092803558
0.078139642
0.060473175
0.04024109
0.01677413
0.13194362
0.13086207
0.12908166
0.12692398
0.12402177
0.11971246
0.11336292
0.10449282
0.092785812
0.078081805
0.060416244
0.040212081
0.016778109
0.13333324
0.13216816
0.13019721
0.12777884
0.12460412
0.12005473
0.1135178
0.10451748
0.092734538
0.078002732
0.060348247
0.040179183
0.016781528
0.13456729
0.13332566
0.13118012
0.12852169
0.12509485
0.12032342
0.11361497
0.10449868
0.092652759
0.077904587
0.060270496
0.040142947
0.016784407
0.13565565
0.1343439
0.13203846
0.12915933
0.12549978
0.12052369
0.11365895
0.10444028
0.092543535
0.07778957
0.060184323
0.040103929
0.016786771
0.13660802
0.13523206
0.13278031
0.12969856
0.12582477
0.1206607
0.11365428
0.10434611
0.092409921
0.077659877
0.060091053
0.040062678
0.016788648
0.13743386
0.13599913
0.1334136
0.13014616
0.12607563
0.12073954
0.11360542
0.10421995
0.092254925
0.077517669
0.059991983
0.040019723
0.016790069
0.13814232
0.13665386
0.13394613
0.13050879
0.12625812
0.12076524
0.11351674
0.10406551
0.092081478
0.077365042
0.059888364
0.039975571
0.016791065
0.13874225
0.13720468
0.13438548
0.130793
0.12637783
0.12074268
0.11339248
0.10388634
0.091892406
0.077204008
0.059781386
0.039930693
0.016791671
0.13924215
0.13765976
0.13473896
0.13100511
0.12644024
0.12067659
0.11323673
0.10368587
0.091690403
0.077036475
0.059672165
0.039885526
0.016791922
0.13965013
0.13802687
0.13501365
0.13115126
0.1264506
0.12057153
0.1130534
0.10346736
0.091478019
0.07686423
0.059561734
0.039840467
0.01679185
0.13997393
0.13831346
0.13521629
0.13123732
0.12641397
0.12043184
0.1128462
0.10323389
0.091257644
0.076688934
0.059451038
0.03979587
0.016791489
0.14022093
0.13852663
0.13535334
0.13126895
0.12633521
0.12026168
0.11261866
0.10298834
0.091031501
0.076512112
0.059340932
0.039752047
0.016790873
0.1403981
0.13867308
0.13543094
0.13125149
0.12621891
0.12006497
0.11237408
0.10273342
0.09080164
0.076335151
0.059232178
0.03970927
0.016790032
0.14051201
0.13875917
0.13545489
0.13119005
0.12606943
0.11984543
0.11211556
0.10247161
0.090569937
0.076159299
0.059125445
0.039667767
0.016788996
0.14056889
0.13879088
0.13543068
0.13108944
0.12589091
0.11960652
0.11184599
0.10220522
0.090338094
0.075985669
0.059021314
0.039627731
0.016787793
0.14057456
0.13877385
0.13536348
0.1309542
0.12568721
0.11935151
0.11156804
0.10193635
0.090107638
0.075815222
0.058920233
0.039589101
0.016786448
0.14053449
0.13871337
0.13525814
0.13078859
0.12546197
0.11908342
0.11128416
0.10166689
0.089879923
0.075648786
0.058822557
0.03955183
0.016784983
0.14045382
0.13861437
0.13511922
0.1305966
0.12521857
0.11880507
0.11099661
0.10139857
0.089656119
0.075486996
0.05872831
0.039516209
0.016783417
0.14033729
0.13848148
0.13495096
0.13038197
0.12496019
0.11851903
0.11070744
0.10113289
0.089437255
0.075330434
0.058637832
0.039482362
0.016781769
0.14018938
0.13831898
0.13475731
0.13014817
0.12468972
0.11822769
0.11041849
0.1008712
0.089224119
0.075179225
0.058551557
0.039450383
0.016780059
0.1400142
0.13813089
0.13454196
0.1298984
0.12440989
0.11793321
0.1101314
0.10061463
0.089017344
0.075034064
0.058469631
0.039420321
0.016778308
0.13981559
0.13792088
0.1343083
0.12963565
0.12412315
0.11763756
0.10984766
0.10036417
0.088817473
0.074895412
0.05839218
0.039392209
0.016776531
0.13959709
0.1376924
0.13405948
0.12936266
0.12383177
0.11734249
0.10956847
0.10012045
0.088625303
0.074763514
0.058319285
0.039366058
0.016774745
0.13936196
0.1374486
0.13379841
0.12908193
0.1235378
0.11704955
0.10929489
0.099884428
0.088441297
0.074638545
0.05825098
0.039341858
0.016772962
0.13911321
0.13719238
0.13352774
0.12879576
0.12324307
0.11676009
0.10902789
0.09965689
0.0882658
0.074520617
0.058187261
0.039319582
0.016771194
0.1388536
0.13692639
0.13324989
0.12850621
0.12294919
0.11647525
0.10876856
0.099438382
0.088099061
0.074409787
0.058128091
0.039299188
0.016769452
0.13858565
0.13665307
0.13296706
0.1282151
0.12265757
0.11619637
0.1085177
0.099229342
0.087941251
0.074306054
0.058073403
0.039280624
0.016767744
0.13831163
0.13637458
0.13268116
0.12792407
0.12236972
0.11592449
0.10827596
0.099030106
0.087792467
0.074209373
0.058023106
0.039263827
0.016766077
0.13803357
0.13609287
0.13239402
0.12763479
0.12208694
0.11566052
0.10804389
0.098840917
0.087652738
0.074119656
0.057977085
0.03924873
0.016764459
0.13775334
0.13580975
0.13210736
0.12734871
0.12181035
0.11540523
0.10782192
0.098661935
0.087522036
0.074036778
0.05793521
0.039235259
0.016762894
0.13747265
0.13552693
0.13182271
0.12706715
0.12154093
0.11515925
0.10761038
0.09849324
0.087400275
0.073960582
0.057897333
0.039223337
0.016761387
0.13719307
0.13524591
0.13154145
0.12679123
0.12127952
0.1149231
0.10740949
0.098334839
0.087287321
0.07389088
0.057863296
0.039212885
0.016759941
0.13691603
0.13496807
0.13126483
0.12652197
0.12102684
0.11469721
0.10721942
0.098186676
0.087182996
0.07382746
0.057832927
0.039203818
0.016758559
0.13664279
0.13469462
0.13099392
0.12626022
0.12078346
0.11448187
0.10704021
0.098048631
0.08708708
0.073770084
0.057806045
0.039196053
0.016757243
0.13637447
0.13442664
0.13072966
0.12600672
0.12054988
0.1142773
0.10687187
0.097920536
0.086999322
0.073718502
0.057782465
0.039189502
0.016755994
0.13611209
0.13416507
0.13047288
0.1257621
0.12032647
0.11408365
0.10671432
0.097802175
0.086919444
0.073672447
0.057761996
0.039184081
0.016754812
0.1358565
0.13391074
0.13022428
0.12552686
0.12011352
0.11390097
0.10656743
0.0976933
0.086847148
0.073631651
0.05774445
0.039179707
0.016753698
0.13560847
0.13366437
0.12998445
0.12530144
0.11991124
0.11372927
0.10643104
0.097593635
0.086782126
0.073595839
0.057729642
0.0391763
0.016752652
0.13536867
0.13342656
0.12975392
0.12508618
0.11971978
0.11356849
0.10630494
0.097502884
0.086724063
0.073564743
0.057717394
0.039173785
0.016751671
0.13513763
0.13319783
0.12953308
0.12488132
0.11953921
0.11341853
0.10618889
0.097420735
0.08667264
0.073538097
0.057707534
0.039172092
0.016750757
0.13491584
0.13297861
0.12932227
0.12468706
0.11936953
0.11327925
0.10608263
0.097346862
0.086627534
0.073515639
0.057699896
0.039171154
0.016749908
0.13470366
0.13276923
0.12912174
0.12450351
0.11921072
0.11315045
0.10598586
0.09728092
0.086588418
0.073497109
0.057694317
0.039170908
0.016749123
0.13450139
0.13256995
0.12893166
0.12433072
0.11906265
0.1130319
0.10589825
0.097222551
0.086554957
0.073482245
0.057690638
0.039171292
0.0167484
0.13430922
0.13238094
0.12875211
0.12416864
0.11892518
0.1129233
0.10581944
0.097171376
0.086526808
0.073470785
0.057688697
0.039172244
0.016747738
0.13412728
0.13220228
0.12858312
0.1240172
0.11879807
0.11282436
0.10574906
0.097127
0.086503619
0.073462459
0.057688334
0.039173701
0.016747135
0.1339556
0.132034
0.12842463
0.12387622
0.11868107
0.11273469
0.10568669
0.097089016
0.086485034
0.073457003
0.057689387
0.0391756
0.016746588
0.13379417
0.13187604
0.12827653
0.12374552
0.11857387
0.11265393
0.1056319
0.097057011
0.086470697
0.073454152
0.057691701
0.039177881
0.016746095
0.1336429
0.13172829
0.12813865
0.12362483
0.11847614
0.11258166
0.10558428
0.097030578
0.086460266
0.073453654
0.057695125
0.039180484
0.016745653
0.13350169
0.13159063
0.1280108
0.1235139
0.11838753
0.1125175
0.1055434
0.097009324
0.086453411
0.073455274
0.057699525
0.03918336
0.01674526
0.13337038
0.13146287
0.12789277
0.12341244
0.11830768
0.11246103
0.10550885
0.096992879
0.08644983
0.0734588
0.057704779
0.039186464
0.016744911
0.1332488
0.13134483
0.12778431
0.12332014
0.11823625
0.11241187
0.10548026
0.096980894
0.086449247
0.07346404
0.057710786
0.039189759
0.016744606
0.13313675
0.13123629
0.12768517
0.12323671
0.11817288
0.11236965
0.10545725
0.096973048
0.086451406
0.073470824
0.057717453
0.039193218
0.016744342
0.13303402
0.13113701
0.12759509
0.12316184
0.11811722
0.11233401
0.10543948
0.096969033
0.086456072
0.073478996
0.057724703
0.039196815
0.016744116
0.13294037
0.13104676
0.12751378
0.1230952
0.11806892
0.11230456
0.10542659
0.09696855
0.086463015
0.073488407
0.057732458
0.039200529
0.016743928
0.13285552
0.13096523
0.12744093
0.12303643
0.1180276
0.11228095
0.10541823
0.096971301
0.086472007
0.073498906
0.057740642
0.039204335
0.016743776
0.13277918
0.13089212
0.12737619
0.12298517
0.11799286
0.11226276
0.10541404
0.096976976
0.086482813
0.073510337
0.057749172
0.039208207
0.016743657
0.13271097
0.13082705
0.12731917
0.12294102
0.1179643
0.11224961
0.10541365
0.096985261
0.086495191
0.07352254
0.057757961
0.039212114
0.01674357
0.13265053
0.13076964
0.12726948
0.12290353
0.11794147
0.11224105
0.10541668
0.096995834
0.086508894
0.073535346
0.057766916
0.03921602
0.016743511
0.13259744
0.13071947
0.12722667
0.12287226
0.11792392
0.11223668
0.10542273
0.097008376
0.086523682
0.073548595
0.057775948
0.039219892
0.016743478
0.13255127
0.1306761
0.12719031
0.12284678
0.11791121
0.11223606
0.10543146
0.097022585
0.086539326
0.073562135
0.057784973
0.039223698
0.016743468
0.13251159
0.1306391
0.12715995
0.12282663
0.11790293
0.11223882
0.1054425
0.097038187
0.086555625
0.073575837
0.057793923
0.039227413
0.016743478
0.13247801
0.13060807
0.12713518
0.12281141
0.11789867
0.11224459
0.10545557
0.097054943
0.086572409
0.073589595
0.057802746
0.039231019
0.016743505
0.13245014
0.13058262
0.12711562
0.12280074
0.1178981
0.11225307
0.10547041
0.097072657
0.086589546
0.073603335
0.05781141
0.039234509
0.016743547
0.13242763
0.13056239
0.12710092
0.12279429
0.11790088
0.11226397
0.10548678
0.097091165
0.086606931
0.073617003
0.057819899
0.039237883
0.016743602
0.13241015
0.13054707
0.12709075
0.12279174
0.11790674
0.11227707
0.10550451
0.097110338
0.086624488
0.073630566
0.057828207
0.039241145
0.01674367
0.13239742
0.13053635
0.12708482
0.12279281
0.11791543
0.11229214
0.10552343
0.097130059
0.08664215
0.073643997
0.057836333
0.039244304
0.016743751
0.13238912
0.13052992
0.12708282
0.12279722
0.11792669
0.11230897
0.10554337
0.097150217
0.086659851
0.073657268
0.057844272
0.039247364
0.016743842
0.13238496
0.1305275
0.12708448
0.12280469
0.11794027
0.11232735
0.10556416
0.097170691
0.086677517
0.073670341
0.057852008
0.039250302
0.016743944
0.13238461
0.13052876
0.12708946
0.12281492
0.1179559
0.11234705
0.10558563
0.097191347
0.086695056
0.07368316
0.057859514
0.039253105
0.016744056
0.13238774
0.13053336
0.12709745
0.12282761
0.1179733
0.11236782
0.10560758
0.097212035
0.086712365
0.073695657
0.057866732
0.039255778
0.016744175
0.13239397
0.13054095
0.12710809
0.12284241
0.11799217
0.11238942
0.10562979
0.097232596
0.086729327
0.073707757
0.057873629
0.03925831
0.0167443
0.13240294
0.13055115
0.12712102
0.122859
0.11801221
0.11241158
0.10565207
0.097252871
0.086745826
0.073719366
0.057880184
0.039260693
0.016744429
0.13241427
0.13056359
0.12713589
0.12287705
0.11803314
0.11243406
0.10567421
0.097272714
0.086761764
0.073730436
0.057886372
0.039262917
0.01674456
0.1324276
0.13057793
0.12715238
0.12289625
0.11805468
0.11245664
0.10569605
0.097291997
0.086777037
0.073740943
0.057892175
0.039264977
0.016744691
0.13244262
0.13059385
0.12717017
0.12291634
0.11807661
0.11247915
0.10571745
0.097310626
0.086791614
0.073750862
0.057897586
0.039266871
0.016744822
0.13245905
0.13061108
0.12718902
0.12293709
0.11809875
0.11250145
0.10573832
0.097328536
0.086805482
0.073760186
0.057902606
0.039268601
0.016744951
0.13247666
0.1306294
0.12720871
0.12295833
0.11812095
0.11252342
0.10575857
0.097345722
0.086818639
0.07376893
0.057907251
0.039270176
0.016745077
0.13249527
0.13064862
0.12722909
0.12297991
0.11814311
0.11254499
0.10577819
0.097362185
0.086831102
0.073777117
0.057911544
0.039271608
0.016745201
0.13251474
0.13066861
0.12725002
0.12300172
0.11816515
0.11256613
0.10579719
0.097377941
0.086842903
0.073784784
0.057915515
0.039272911
0.016745321
0.13253494
0.13068924
0.1272714
0.12302368
0.11818701
0.11258683
0.10581557
0.097393015
0.086854076
0.073791967
0.057919192
0.039274102
0.016745439
0.13255578
0.13071041
0.12729312
0.12304572
0.11820865
0.11260706
0.10583332
0.097407429
0.086864654
0.0737987
0.057922601
0.039275193
0.016745555
0.13257712
0.13073201
0.12731508
0.12306774
0.11823001
0.11262679
0.10585046
0.097421197
0.08687466
0.073805008
0.057925764
0.039276197
0.016745669
0.13259884
0.13075391
0.12733719
0.12308967
0.11825104
0.11264599
0.10586695
0.097434317
0.086884105
0.073810905
0.057928692
0.039277118
0.01674578
0.13262079
0.13077598
0.1273593
0.1231114
0.11827164
0.11266461
0.10588277
0.097446776
0.086892987
0.073816396
0.057931391
0.039277962
0.01674589
0.1326428
0.13079805
0.12738128
0.12313281
0.11829173
0.11268256
0.10589786
0.097458545
0.08690129
0.073821474
0.057933858
0.039278726
0.016745998
0.1326647
0.13081995
0.12740297
0.12315376
0.1183112
0.11269977
0.10591218
0.097469588
0.086908994
0.073826126
0.057936086
0.039279409
0.016746102
0.1326863
0.13084152
0.12742422
0.12317412
0.11832993
0.11271616
0.10592567
0.09747987
0.086916076
0.07383034
0.057938067
0.039280005
0.016746202
0.13270744
0.13086259
0.12744488
0.12319377
0.11834784
0.11273166
0.10593828
0.097489361
0.086922519
0.073834104
0.057939795
0.039280509
0.016746298
0.13272797
0.13088302
0.12746483
0.1232126
0.11836485
0.11274622
0.10594997
0.097498046
0.086928316
0.073837417
0.057941268
0.039280919
0.016746388
0.13274778
0.13090271
0.12748397
0.12323055
0.1183809
0.11275981
0.10596075
0.097505926
0.086933476
0.073840289
0.057942492
0.039281237
0.016746472
0.13276679
0.13092157
0.12750225
0.12324756
0.11839598
0.11277243
0.10597063
0.097513025
0.086938024
0.073842742
0.057943482
0.039281469
0.01674655
0.13278496
0.13093958
0.12751962
0.12326363
0.11841009
0.1127841
0.10597963
0.097519384
0.086942001
0.073844807
0.057944258
0.03928162
0.016746621
0.1328023
0.13095674
0.12753611
0.12327879
0.11842328
0.11279488
0.10598782
0.097525057
0.086945456
0.073846525
0.057944847
0.039281704
0.016746687
0.13281884
0.13097307
0.12755174
0.12329306
0.11843558
0.11280481
0.10599526
0.09753011
0.086948446
0.073847942
0.057945278
0.039281732
0.016746747
0.1328346
0.1309886
0.12756655
0.12330649
0.11844705
0.11281397
0.10600201
0.097534605
0.086951028
0.073849099
0.057945579
0.039281718
0.016746802
0.13284964
0.13100339
0.12758059
0.12331914
0.11845776
0.11282241
0.10600814
0.097538599
0.08695325
0.073850035
0.057945773
0.039281673
0.016746853
0.13286397
0.13101747
0.1275939
0.12333105
0.11846774
0.11283019
0.10601369
0.097542138
0.08695515
0.073850777
0.057945878
0.039281605
0.0167469
0.13287764
0.13103085
0.12760649
0.12334224
0.11847703
0.11283733
0.1060187
0.097545254
0.086956754
0.073851343
0.057945905
0.039281518
0.016746945
0.13289064
0.13104355
0.12761839
0.12335274
0.11848565
0.11284386
0.1060232
0.097547967
0.086958076
0.073851743
0.057945856
0.039281412
0.016746986
0.13290295
0.13105556
0.12762958
0.12336253
0.11849359
0.11284979
0.10602718
0.097550284
0.086959123
0.073851979
0.057945733
0.039281288
0.016747024
0.13291456
0.13106686
0.12764006
0.12337161
0.11850088
0.11285512
0.10603067
0.097552212
0.086959897
0.073852049
0.057945531
0.039281141
0.01674706
0.13292544
0.13107743
0.1276498
0.12337999
0.11850749
0.11285985
0.10603365
0.097553757
0.086960404
0.073851957
0.057945251
0.03928097
0.016747091
0.13293558
0.13108725
0.1276588
0.12338764
0.11851344
0.11286401
0.10603616
0.097554934
0.086960653
0.073851708
0.057944893
0.039280773
0.016747119
0.13294494
0.13109631
0.12766706
0.12339459
0.11851875
0.1128676
0.10603821
0.097555763
0.086960663
0.073851315
0.057944465
0.039280553
0.016747144
0.13295355
0.13110462
0.12767458
0.12340084
0.11852343
0.11287067
0.10603984
0.097556276
0.08696046
0.073850798
0.057943978
0.039280314
0.016747164
0.13296139
0.13111217
0.12768138
0.12340643
0.11852752
0.11287323
0.10604108
0.097556508
0.086960075
0.07385018
0.057943448
0.039280062
0.016747181
0.13296848
0.13111899
0.12768749
0.12341138
0.11853106
0.11287535
0.10604196
0.097556497
0.08695954
0.073849486
0.05794289
0.039279805
0.016747196
0.13297485
0.1311251
0.12769292
0.12341572
0.11853407
0.11287704
0.10604254
0.097556274
0.086958881
0.073848735
0.057942318
0.039279549
0.016747208
0.1329805
0.13113052
0.1276977
0.12341948
0.11853659
0.11287834
0.10604283
0.097555861
0.086958116
0.07384794
0.057941739
0.039279299
0.016747218
0.13298545
0.13113525
0.12770184
0.12342267
0.11853863
0.11287927
0.10604284
0.097555269
0.086957253
0.073847106
0.057941155
0.039279054
0.016747226
0.13298972
0.13113931
0.12770535
0.12342529
0.1185402
0.11287982
0.10604258
0.097554498
0.086956287
0.073846228
0.057940561
0.039278814
0.016747232
0.13299331
0.13114272
0.12770824
0.12342736
0.1185413
0.11287999
0.10604204
0.09755354
0.086955209
0.073845293
0.057939949
0.039278571
0.016747237
0.13299626
0.13114549
0.12771054
0.1234289
0.11854194
0.1128798
0.10604123
0.097552388
0.086954009
0.073844293
0.057939308
0.039278322
0.016747239
0.1329986
0.13114767
0.12771226
0.12342992
0.11854215
0.11287926
0.10604015
0.097551044
0.086952683
0.073843218
0.05793863
0.039278058
0.016747239
0.1330004
0.13114931
0.12771348
0.12343048
0.11854195
0.1128784
0.10603882
0.097549524
0.08695124
0.073842074
0.057937916
0.039277779
0.016747237
0.13300176
0.13115049
0.12771426
0.12343064
0.11854142
0.11287726
0.1060373
0.097547865
0.086949707
0.073840876
0.057937172
0.039277484
0.016747231
0.13300276
0.13115133
0.1277147
0.1234305
0.11854065
0.11287594
0.10603563
0.097546121
0.086948127
0.073839655
0.057936417
0.039277182
0.016747223
0.13300355
0.13115193
0.12771491
0.12343017
0.11853972
0.11287452
0.10603392
0.097544361
0.086946555
0.073838452
0.057935677
0.039276881
0.016747213
0.13300422
0.13115242
0.12771502
0.12342974
0.11853874
0.11287309
0.10603224
0.097542661
0.086945054
0.073837314
0.05793498
0.039276597
0.016747202
0.13300488
0.13115288
0.1277151
0.12342932
0.1185378
0.11287174
0.10603067
0.097541089
0.086943681
0.073836286
0.057934358
0.039276344
0.016747191
0.13300557
0.13115337
0.12771523
0.12342898
0.11853697
0.11287053
0.10602927
0.097539696
0.086942478
0.073835398
0.057933832
0.039276134
0.016747182
0.13300631
0.13115392
0.12771543
0.12342872
0.11853627
0.11286949
0.10602806
0.097538502
0.086941464
0.07383467
0.057933417
0.039275979
0.016747174
0.13300704
0.13115449
0.12771566
0.12342854
0.11853567
0.11286859
0.10602701
0.097537489
0.086940625
0.07383409
0.057933111
0.039275882
0.01674717
0.13300767
0.13115497
0.12771585
0.12342834
0.11853511
0.11286776
0.10602608
0.097536602
0.086939911
0.073833623
0.057932893
0.039275838
0.016747168
0.13300807
0.13115526
0.12771588
0.12342803
0.11853448
0.11286692
0.10602516
0.097535754
0.086939248
0.073833202