/*--------------------------------*- C++ -*----------------------------------*\
| =========                 |                                                 |
| \\      /  F ield         | OpenFOAM: The Open Source CFD Toolbox           |
|  \\    /   O peration     | Version:  2506                                  |
|   \\  /    A nd           | Website:  www.openfoam.com                      |
|    \\/     M anipulation  |                                                 |
\*---------------------------------------------------------------------------*/
FoamFile
{
    version     2.0;
    format      ascii;
    arch        "LSB;label=32;scalar=64";
    class       volScalarField;
    location    "13000/water";
    object      epsilon;
}
// * * * * * * * * * * * * * * * * * * * * * * * * * * * * * * * * * * * * * //

dimensions      [0 2 -3 0 0 0 0];

internalField   nonuniform List<scalar> 
2600
(
8.8079773e-05
8.8079245e-05
8.8079271e-05
8.807949e-05
8.8079744e-05
8.8080245e-05
8.8082926e-05
8.8104349e-05
8.8272771e-05
8.9512908e-05
9.8428186e-05
0.00017145296
0.0010138716
6.7789348e-05
6.7791881e-05
6.7793339e-05
6.7794963e-05
6.7796901e-05
6.7799886e-05
6.7810178e-05
6.7875511e-05
6.8312468e-05
7.1039872e-05
8.7857083e-05
0.00021159534
0.0014669324
5.3500886e-05
5.3503148e-05
5.3504846e-05
5.3506859e-05
5.3509287e-05
5.3513643e-05
5.3532992e-05
5.3656306e-05
5.4399641e-05
5.8506995e-05
8.1500797e-05
0.00023956052
0.0017068244
4.3127504e-05
4.3128883e-05
4.3130503e-05
4.3132598e-05
4.3135149e-05
4.3140834e-05
4.3171684e-05
4.3362646e-05
4.4413342e-05
4.9710824e-05
7.7552644e-05
0.00025818579
0.0017816909
3.539909e-05
3.5400132e-05
3.5401605e-05
3.5403513e-05
3.5405834e-05
3.5412916e-05
3.5457613e-05
3.5722605e-05
3.7073304e-05
4.3450503e-05
7.5629286e-05
0.00027290618
0.0017622817
2.9510599e-05
2.9511446e-05
2.95127e-05
2.9514227e-05
2.9516143e-05
2.9525119e-05
2.9586798e-05
2.9933924e-05
3.159515e-05
3.9095388e-05
7.5939385e-05
0.00028837858
0.0017002497
2.4935213e-05
2.4935877e-05
2.4936847e-05
2.4937875e-05
2.4939416e-05
2.4951342e-05
2.503458e-05
2.5477125e-05
2.7489448e-05
3.6318413e-05
7.8818158e-05
0.0003073199
0.0016256765
2.1318423e-05
2.1318913e-05
2.1319549e-05
2.132003e-05
2.1321464e-05
2.1338095e-05
2.144948e-05
2.2008273e-05
2.4447975e-05
3.4968795e-05
8.4593389e-05
0.00033066897
0.0015541994
1.8415642e-05
1.8415958e-05
1.8416233e-05
1.8416208e-05
1.8418091e-05
1.8442025e-05
1.8590687e-05
1.9295945e-05
2.2279378e-05
3.5010665e-05
9.3512814e-05
0.00035786641
0.0014930959
1.6054297e-05
1.6054439e-05
1.6054351e-05
1.6053968e-05
1.6057197e-05
1.6092028e-05
1.6290179e-05
1.7183376e-05
2.0872546e-05
3.6486908e-05
0.00010564207
0.00038720676
0.0014449141
1.411016e-05
1.4110129e-05
1.4109712e-05
1.4109249e-05
1.4115119e-05
1.4165612e-05
1.4429188e-05
1.5565379e-05
2.0175367e-05
3.9486471e-05
0.00012074249
0.00041640751
0.0014094648
1.249217e-05
1.2491978e-05
1.249131e-05
1.24912e-05
1.2501471e-05
1.2573786e-05
1.2923263e-05
1.4374121e-05
2.0181311e-05
4.4103574e-05
0.00013819401
0.0004433175
0.0013850187
1.1132483e-05
1.1132152e-05
1.1131368e-05
1.1132227e-05
1.1149209e-05
1.1251189e-05
1.1712642e-05
1.3570321e-05
2.0918928e-05
5.0386672e-05
0.00015703479
0.00046647967
0.0013691707
9.9797899e-06
9.9793621e-06
9.9786681e-06
9.9813266e-06
1.0007987e-05
1.0149541e-05
1.0756002e-05
1.3137755e-05
2.2440689e-05
5.8285038e-05
0.00017613324
0.00048532286
0.0013594869
8.994766e-06
8.994305e-06
8.9939894e-06
8.9995396e-06
9.0396464e-06
9.2332357e-06
1.0026406e-05
1.3079617e-05
2.4808572e-05
6.7609618e-05
0.00019442665
0.00050000486
0.0013539038
8.1468971e-06
8.1464947e-06
8.1469469e-06
8.1567947e-06
8.2150975e-06
8.4763588e-06
9.5087285e-06
1.3415553e-05
2.807526e-05
7.8026841e-05
0.0002111215
0.00051110137
0.0013508788
7.4122408e-06
7.412023e-06
7.4137548e-06
7.4296903e-06
7.5121568e-06
7.8606834e-06
9.1980664e-06
1.4178291e-05
3.2262331e-05
8.9094588e-05
0.00022578146
0.00051932558
0.0013493668
6.7718206e-06
6.7719549e-06
6.7756276e-06
6.7999151e-06
6.9140283e-06
7.3743439e-06
9.0987625e-06
1.5408888e-05
3.7339829e-05
0.00010033156
0.00023829849
0.00052535583
0.0013487149
6.2104575e-06
6.2111621e-06
6.2176208e-06
6.2531142e-06
6.4082476e-06
7.0110033e-06
9.2236697e-06
1.7149875e-05
4.3213606e-05
0.00011129559
0.0002487951
0.00052976262
0.0013485457
5.7159095e-06
5.7174657e-06
5.7277834e-06
5.7780724e-06
5.9859581e-06
6.7693776e-06
9.5932706e-06
1.9436233e-05
4.9726067e-05
0.00012164394
0.00025751549
0.00053299526
0.0013486594
5.2782322e-06
5.2809984e-06
5.2965329e-06
5.3661281e-06
5.6414368e-06
6.6530083e-06
1.0234238e-05
2.228513e-05
5.6672016e-05
0.00013115952
0.00026474159
0.0005353945
0.0013489619
4.889296e-06
4.893728e-06
4.9161934e-06
5.0107595e-06
5.3718124e-06
6.6701645e-06
1.1177042e-05
2.5686553e-05
6.3825678e-05
0.00013974422
0.00027074337
0.00053721257
0.0013494179
4.5424222e-06
4.549097e-06
4.5806559e-06
4.707302e-06
5.1769356e-06
6.8337316e-06
1.2452335e-05
2.9597477e-05
7.097079e-05
0.00014739148
0.0002757568
0.0005386328
0.0013500205
4.2321037e-06
4.2417515e-06
4.2851315e-06
4.4527719e-06
5.0593678e-06
7.1609028e-06
1.4086152e-05
3.394183e-05
7.7925113e-05
0.00015415333
0.00027997823
0.00053978641
0.0013507744
3.9537926e-06
3.9673375e-06
4.0259782e-06
4.2457763e-06
5.0244499e-06
7.6724686e-06
1.6094424e-05
3.8616919e-05
8.4553951e-05
0.00016011197
0.00028356674
0.00054076615
0.0013516866
3.7037376e-06
3.7223496e-06
3.8005873e-06
4.0864974e-06
5.0804009e-06
8.3914976e-06
1.8477844e-05
4.3504911e-05
9.077206e-05
0.00016536002
0.00028664926
0.00054163685
0.0013527623
3.4788613e-06
3.504022e-06
3.6073203e-06
3.9767408e-06
5.2383695e-06
9.3412707e-06
2.1218352e-05
4.8486363e-05
9.6537094e-05
0.00016998886
0.00028932618
0.00054244334
0.0013540034
3.2766694e-06
3.3102566e-06
3.4454921e-06
3.9200366e-06
5.5123349e-06
1.0542478e-05
2.4278371e-05
5.3452376e-05
0.00010183911
0.00017408281
0.00029167656
0.00054321637
0.0013554084
3.0951868e-06
3.1395803e-06
3.315394e-06
3.9217755e-06
5.9187331e-06
1.2009945e-05
2.7603266e-05
5.8312862e-05
0.0001066899
0.00017771679
0.00029376257
0.00054397675
0.0013569728
2.9329181e-06
2.991133e-06
3.2183574e-06
3.9893517e-06
6.4756801e-06
1.3749403e-05
3.112658e-05
6.3000084e-05
0.00011111418
0.0001809559
0.00029563313
0.00054473837
0.0013586903
2.7888292e-06
2.8646819e-06
3.1568532e-06
4.132263e-06
7.2016967e-06
1.5755029e-05
3.4776807e-05
6.7468124e-05
0.00011514328
0.00018385585
0.00029732665
0.00054550992
0.0013605531
2.6623516e-06
2.7606641e-06
3.1346228e-06
4.362102e-06
8.1139275e-06
1.8008404e-05
3.8484156e-05
7.1689805e-05
0.00011881108
0.00018646428
0.00029887505
0.00054629402
0.0013625491
2.5534088e-06
2.680258e-06
3.1568304e-06
4.6923496e-06
9.22598e-06
2.0479254e-05
4.21859e-05
7.5652556e-05
0.00012215122
0.00018882083
0.00030030031
0.00054708344
0.001364665
2.4624667e-06
2.6254827e-06
3.2302147e-06
5.1378784e-06
1.0545685e-05
2.3127918e-05
4.5829653e-05
7.9354439e-05
0.00012519597
0.00019095973
0.00030162122
0.00054787012
0.0013668874
2.3906118e-06
2.5993266e-06
3.3632045e-06
5.7140891e-06
1.2073206e-05
2.5908984e-05
4.9374527e-05
8.2800767e-05
0.00012797522
0.0001929092
0.00030285018
0.00054865287
0.0013692048
2.3396576e-06
2.6059009e-06
3.565945e-06
6.4356565e-06
1.379994e-05
2.8775319e-05
5.2790668e-05
8.6001443e-05
0.00013051585
0.00019469159
0.00030399376
0.00054944272
0.0013716092
2.3122834e-06
2.6506068e-06
3.8501618e-06
7.314953e-06
1.5708513e-05
3.1681692e-05
5.6057927e-05
8.8969441e-05
0.00013284315
0.00019632773
0.00030505437
0.00055025018
0.0013740956
2.312204e-06
2.7402971e-06
4.2287855e-06
8.3603379e-06
1.7773921e-05
3.4587408e-05
5.9163895e-05
9.1718484e-05
0.000134977
0.0001978295
0.00030604752
0.00055107622
0.0013766577
2.3443664e-06
2.8833943e-06
4.7152659e-06
9.5746044e-06
1.9965609e-05
3.7457895e-05
6.2102575e-05
9.4263946e-05
0.00013693775
0.00019920349
0.00030698675
0.00055192214
0.0013792894
2.4151613e-06
3.0899099e-06
5.3225443e-06
1.0953905e-05
2.2249993e-05
4.026506e-05
6.4872079e-05
9.6618923e-05
0.00013873802
0.00020046565
0.00030788006
0.00055278755
0.0013819844
2.5326205e-06
3.3712892e-06
6.0617308e-06
1.2487421e-05
2.4593018e-05
4.2987257e-05
6.7474461e-05
9.8797812e-05
0.00014038632
0.00020163083
0.00030873381
0.00055367121
0.0013847362
2.7065545e-06
3.7399971e-06
6.940629e-06
1.4157864e-05
2.6962172e-05
4.5608169e-05
6.9912765e-05
0.00010081055
0.00014189658
0.00020271013
0.00030955281
0.00055457137
0.0013875384
2.9485502e-06
4.2087762e-06
7.9623505e-06
1.5942735e-05
2.9328091e-05
4.8116704e-05
7.2192973e-05
0.0001026631
0.00014328329
0.00020371266
0.00031034058
0.00055548595
0.0013903847
3.2717208e-06
4.7895537e-06
9.1242825e-06
1.7815987e-05
3.1665001e-05
5.0504533e-05
7.431848e-05
0.00010436656
0.00014455809
0.0002046458
0.0003110997
0.0005564126
0.0013932686
3.690086e-06
5.4920732e-06
1.0417684e-05
1.9750012e-05
3.39517e-05
5.2768184e-05
7.6289669e-05
0.00010593299
0.00014573089
0.00020551555
0.00031183197
0.00055734877
0.0013961839
4.2174852e-06
6.3224284e-06
1.1827952e-05
2.1717141e-05
3.6170247e-05
5.490116e-05
7.8113758e-05
0.00010737249
0.00014680993
0.00020632674
0.00031253851
0.00055829181
0.0013991243
4.8660267e-06
7.2817753e-06
1.3335594e-05
2.3691124e-05
3.8306689e-05
5.6898168e-05
7.9798305e-05
0.0001086939
0.00014780214
0.00020708321
0.00031321994
0.00055923891
0.0014020836
5.6442504e-06
8.3655576e-06
1.4917867e-05
2.5648781e-05
4.0344258e-05
5.8760208e-05
8.13501e-05
0.00010990478
0.00014871322
0.00020778792
0.00031387636
0.00056018713
0.0014050556
6.5553607e-06
9.5634612e-06
1.6550687e-05
2.7565322e-05
4.2272542e-05
6.0488809e-05
8.2775229e-05
0.00011101156
0.00014954783
0.00020844308
0.00031450745
0.00056113341
0.0014080338
7.5961552e-06
1.0860443e-05
1.820737e-05
2.9419103e-05
4.408453e-05
6.2085815e-05
8.4079034e-05
0.0001120196
0.00015030969
0.00020905022
0.00031511249
0.00056207454
0.0014110119
8.7563173e-06
1.2235552e-05
1.9861233e-05
3.1193217e-05
4.5774965e-05
6.3553181e-05
8.5266112e-05
0.00011293328
0.00015100165
0.00020961024
0.00031569038
0.00056300711
0.0014139832
1.0017524e-05
1.3664336e-05
2.148845e-05
3.2873859e-05
4.7340054e-05
6.4892868e-05
8.6340348e-05
0.00011375612
0.0001516258
0.00021012347
0.00031623966
0.00056392755
0.0014169405
1.1355903e-05
1.5121213e-05
2.3068172e-05
3.4450179e-05
4.877729e-05
6.6106813e-05
8.7304985e-05
0.00011449085
0.00015218355
0.00021058975
0.00031675852
0.00056483204
0.0014198766
1.2744267e-05
1.6581082e-05
2.4582903e-05
3.5914124e-05
5.0085355e-05
6.7196971e-05
8.8162739e-05
0.00011513953
0.00015267569
0.00021100843
0.00031724482
0.00056571653
0.0014227834
1.4154484e-05
1.8020639e-05
2.6018605e-05
3.7260265e-05
5.1264092e-05
6.8165414e-05
8.8915933e-05
0.0001157037
0.00015310253
0.00021137848
0.00031769616
0.00056657676
0.0014256524
1.5559582e-05
1.9419303e-05
2.7364607e-05
3.8485598e-05
5.231449e-05
6.901445e-05
8.9566666e-05
0.0001161845
0.00015346401
0.00021169859
0.00031810989
0.00056740823
0.0014284744
1.693534e-05
2.0759788e-05
2.8613379e-05
3.9589304e-05
5.323867e-05
6.9746758e-05
9.0116989e-05
0.00011658289
0.00015375983
0.00021196724
0.00031848324
0.00056820634
0.0014312396
1.826127e-05
2.2028327e-05
2.9760207e-05
4.0572479e-05
5.4039843e-05
7.0365497e-05
9.0569079e-05
0.00011689975
0.00015398961
0.00021218284
0.00031881338
0.0005689664
0.0014339377
1.9521049e-05
2.3214637e-05
3.0802836e-05
4.1437842e-05
5.4722229e-05
7.0874393e-05
9.0925393e-05
0.00011713614
0.00015415307
0.0002123439
0.00031909759
0.0005696838
0.0014365579
2.0702516e-05
2.4311689e-05
3.1741087e-05
4.2189437e-05
5.5290938e-05
7.1277774e-05
9.1188792e-05
0.00011729337
0.00015425016
0.00021244916
0.00031933341
0.00057035412
0.0014390893
2.1797371e-05
2.5315354e-05
3.257649e-05
4.2832333e-05
5.5751829e-05
7.158056e-05
9.1362627e-05
0.00011737319
0.0001542812
0.00021249774
0.00031951874
0.00057097333
0.0014415208
2.2800694e-05
2.6223984e-05
3.3311942e-05
4.3372363e-05
5.6111338e-05
7.178822e-05
9.1450779e-05
0.00011737787
0.00015424704
0.00021248927
0.00031965202
0.0005715379
0.001443842
2.3710404e-05
2.7037978e-05
3.3951389e-05
4.3815875e-05
5.6376317e-05
7.1906693e-05
9.1457658e-05
0.00011731022
0.00015414912
0.00021242401
0.00031973234
0.000572045
0.0014460427
2.4526702e-05
2.7759361e-05
3.4499555e-05
4.416953e-05
5.655387e-05
7.1942284e-05
9.1388171e-05
0.00011717368
0.00015398952
0.00021230291
0.00031975954
0.00057249257
0.001448114
2.5251562e-05
2.8391404e-05
3.4961708e-05
4.4440131e-05
5.6651214e-05
7.190156e-05
9.1247656e-05
0.00011697222
0.00015377099
0.00021212769
0.00031973428
0.00057287945
0.0014500481
2.5888278e-05
2.8938287e-05
3.5343456e-05
4.4634487e-05
5.6675546e-05
7.1791235e-05
9.1041803e-05
0.00011671034
0.00015349695
0.00021190076
0.00031965799
0.00057320541
0.0014518386
2.6441082e-05
2.9404817e-05
3.5650592e-05
4.4759304e-05
5.6633949e-05
7.1618068e-05
9.0776555e-05
0.00011639299
0.00015317136
0.00021162527
0.00031953295
0.00057347115
0.0014534809
2.6914834e-05
2.9796197e-05
3.5888958e-05
4.4821108e-05
5.6533306e-05
7.1388767e-05
9.0458014e-05
0.00011602548
0.00015279874
0.00021130498
0.00031936212
0.00057367824
0.0014549719
2.7314771e-05
3.0117837e-05
3.6064346e-05
4.4826184e-05
5.6380237e-05
7.1109906e-05
9.0092344e-05
0.00011561335
0.00015238399
0.00021094419
0.00031914913
0.00057382909
0.0014563107
2.7646311e-05
3.0375211e-05
3.6182416e-05
4.4780538e-05
5.618106e-05
7.0787858e-05
8.968568e-05
0.00011516233
0.00015193234
0.00021054764
0.00031889812
0.00057392678
0.0014574976
2.7914912e-05
3.0573746e-05
3.6248645e-05
4.4689865e-05
5.5941755e-05
7.0428744e-05
8.924405e-05
0.00011467816
0.0001514492
0.00021012035
0.00031861363
0.00057397499
0.0014585351
2.8125956e-05
3.071874e-05
3.6268275e-05
4.4559537e-05
5.5667948e-05
7.0038383e-05
8.8773301e-05
0.00011416657
0.00015094006
0.00020966751
0.00031830045
0.00057397784
0.0014594269
2.8284674e-05
3.0815302e-05
3.6246294e-05
4.4394596e-05
5.53649e-05
6.9622268e-05
8.8279045e-05
0.00011363314
0.00015041038
0.00020919438
0.00031796351
0.00057393973
0.0014601782
2.8396093e-05
3.0868313e-05
3.6187414e-05
4.4199748e-05
5.5037506e-05
6.9185542e-05
8.7766605e-05
0.00011308328
0.00014986552
0.00020870617
0.00031760772
0.00057386524
0.0014607953
2.8464992e-05
3.0882399e-05
3.6096062e-05
4.3979369e-05
5.4690295e-05
6.8732988e-05
8.7240986e-05
0.0001125221
0.00014931061
0.00020820791
0.0003172379
0.00057375899
0.0014612853
2.8495888e-05
3.0861916e-05
3.5976374e-05
4.3737515e-05
5.432744e-05
6.8269018e-05
8.6706845e-05
0.00011195443
0.00014875054
0.00020770439
0.00031685868
0.00057362554
0.0014616562
2.8493022e-05
3.0810943e-05
3.5832203e-05
4.3477923e-05
5.3952765e-05
6.7797679e-05
8.6168474e-05
0.00011138475
0.00014818984
0.00020720013
0.00031647439
0.00057346929
0.0014619165
2.8460351e-05
3.073328e-05
3.5667117e-05
4.3204031e-05
5.3569758e-05
6.7322654e-05
8.562979e-05
0.00011081716
0.0001476327
0.00020669924
0.00031608905
0.00057329442
0.0014620749
2.8401555e-05
3.0632454e-05
3.5484411e-05
4.2918984e-05
5.3181586e-05
6.6847273e-05
8.5094338e-05
0.00011025537
0.00014708291
0.00020620548
0.00031570629
0.00057310484
0.0014621402
2.8320041e-05
3.0511724e-05
3.5287115e-05
4.2625647e-05
5.2791106e-05
6.6374523e-05
8.4565289e-05
0.00010970271
0.00014654385
0.00020572217
0.00031532933
0.00057290414
0.0014621215
2.821895e-05
3.0374091e-05
3.5078007e-05
4.2326625e-05
5.2400885e-05
6.5907063e-05
8.4045453e-05
0.00010916211
0.0001460185
0.00020525221
0.000314961
0.00057269557
0.0014620273
2.8101171e-05
3.0222309e-05
3.4859618e-05
4.2024269e-05
5.2013211e-05
6.544724e-05
8.353729e-05
0.00010863613
0.00014550942
0.00020479808
0.00031460372
0.00057248205
0.0014618664
2.796935e-05
3.0058895e-05
3.4634255e-05
4.1720694e-05
5.1630114e-05
6.4997102e-05
8.3042925e-05
0.00010812694
0.00014501877
0.00020436186
0.00031425949
0.00057226614
0.0014616467
2.7825902e-05
2.9886143e-05
3.4404002e-05
4.1417794e-05
5.1253378e-05
6.4558424e-05
8.2564168e-05
0.00010763639
0.00014454834
0.00020394523
0.00031392995
0.00057205009
0.0014613761
2.7673027e-05
2.9706136e-05
3.4170742e-05
4.1117251e-05
5.088456e-05
6.4132716e-05
8.210253e-05
0.00010716596
0.00014409957
0.00020354948
0.00031361638
0.00057183575
0.001461062
2.7512721e-05
2.952076e-05
3.3936164e-05
4.0820555e-05
5.0525006e-05
6.3721251e-05
8.1659247e-05
0.00010671685
0.00014367354
0.00020317561
0.00031331979
0.0005716245
0.001460711
2.7346788e-05
2.9331712e-05
3.3701776e-05
4.0529011e-05
5.0175861e-05
6.3325074e-05
8.1235298e-05
0.00010628996
0.00014327104
0.00020282424
0.00031304071
0.00057141641
0.0014603285
2.7176854e-05
2.9140519e-05
3.346892e-05
4.0243759e-05
4.9838093e-05
6.2945028e-05
8.0831432e-05
0.00010588593
0.00014289262
0.00020249589
0.00031277953
0.00057120929
0.0014599197
2.7004379e-05
2.8948542e-05
3.3238781e-05
3.9965777e-05
4.9512499e-05
6.2581768e-05
8.0448179e-05
0.00010550517
0.0001425385
0.00020219044
0.00031253535
0.0005710047
0.0014594897
2.6830669e-05
2.8756996e-05
3.3012396e-05
3.9695902e-05
4.9199725e-05
6.223578e-05
8.0085898e-05
0.00010514794
0.00014220886
0.00020190801
0.00031230612
0.00057080573
0.0014590438
2.6656884e-05
2.8566953e-05
3.2790673e-05
3.9434839e-05
4.8900279e-05
6.1907401e-05
7.9744773e-05
0.00010481424
0.00014190344
0.00020164699
0.00031209276
0.00057061393
0.001458587
2.6484054e-05
2.8379358e-05
3.2574393e-05
3.9183169e-05
4.8614542e-05
6.1596827e-05
7.9424819e-05
0.00010450389
0.00014162171
0.00020140639
0.00031189575
0.00057043045
0.0014581236
2.6313087e-05
2.8195036e-05
3.2364224e-05
3.8941365e-05
4.8342787e-05
6.1304149e-05
7.9125974e-05
0.00010421666
0.0001413622
0.00020118621
0.0003117152
0.00057025605
0.0014576578
2.6144777e-05
2.8014706e-05
3.2160732e-05
3.8709802e-05
4.8085188e-05
6.1029342e-05
7.8847988e-05
0.00010395152
0.00014112445
0.00020098612
0.00031155094
0.00057009123
0.001457193
2.5979816e-05
2.7838985e-05
3.196439e-05
3.8488764e-05
4.7841823e-05
6.0772275e-05
7.8590334e-05
0.00010370764
0.00014090797
0.00020080563
0.00031140262
0.00056993623
0.0014567323
2.5818803e-05
2.76684e-05
3.1775584e-05
3.8278456e-05
4.7612705e-05
6.0532703e-05
7.8352152e-05
0.00010348449
0.00014071215
0.00020064412
0.00031126974
0.00056979115
0.0014562783
2.566225e-05
2.7503398e-05
3.1594631e-05
3.8079033e-05
4.7397756e-05
6.0309955e-05
7.8132958e-05
0.00010328146
0.00014053627
0.00020050083
0.0003111517
0.00056965597
0.0014558334
2.5510598e-05
2.734436e-05
3.1421799e-05
3.7890533e-05
4.7196573e-05
6.0103641e-05
7.7932204e-05
0.00010309788
0.00014037955
0.00020037495
0.00031104784
0.00056953055
0.0014553994
2.5364227e-05
2.7191604e-05
3.1257213e-05
3.771281e-05
4.7008898e-05
5.9913326e-05
7.774929e-05
0.00010293298
0.00014024113
0.0002002656
0.00031095741
0.00056941468
0.0014549781
2.5223416e-05
2.7045321e-05
3.1100915e-05
3.7545749e-05
4.6834439e-05
5.9738537e-05
7.7583569e-05
0.00010278597
0.00014012011
0.00020017187
0.00031087965
0.00056930808
0.0014545708
2.5088367e-05
2.6905646e-05
3.0952917e-05
3.7389204e-05
4.6672871e-05
5.9578765e-05
7.7434359e-05
0.00010265603
0.00014001555
0.00020009281
0.00031081377
0.00056921043
0.0014541786
2.495923e-05
2.6772669e-05
3.0813191e-05
3.7242994e-05
4.6523838e-05
5.9433472e-05
7.7300946e-05
0.00010254228
0.0001399265
0.00020002746
0.00031075897
0.00056912136
0.0014538024
2.483611e-05
2.6646438e-05
3.0681675e-05
3.7106908e-05
4.6386956e-05
5.9302095e-05
7.7182595e-05
0.00010244386
0.000139852
0.00019997488
0.00031071446
0.0005690405
0.0014534428
2.4719071e-05
2.6526966e-05
3.0558277e-05
3.6980709e-05
4.6261819e-05
5.9184047e-05
7.7078555e-05
0.00010235987
0.00013979108
0.00019993413
0.00031067946
0.00056896746
0.0014531003
2.4608141e-05
2.6414233e-05
3.0442875e-05
3.6864135e-05
4.6147999e-05
5.907873e-05
7.6988066e-05
0.00010228944
0.00013974281
0.00019990428
0.0003106532
0.00056890185
0.0014527752
2.4503319e-05
2.6308189e-05
3.0335321e-05
3.6756901e-05
4.6045051e-05
5.8985531e-05
7.691036e-05
0.00010223167
0.00013970623
0.00019988443
0.00031063497
0.00056884329
0.0014524677
2.4404573e-05
2.6208758e-05
3.0235444e-05
3.6658704e-05
4.5952517e-05
5.8903831e-05
7.6844675e-05
0.00010218569
0.00013968044
0.00019987372
0.00031062407
0.00056879142
0.0014521778
2.4311846e-05
2.6115837e-05
3.0143051e-05
3.6569225e-05
4.5869928e-05
5.8833007e-05
7.6790248e-05
0.00010215066
0.00013966455
0.00019987132
0.00031061981
0.00056874587
0.0014519055
2.4225058e-05
2.6029305e-05
3.0057932e-05
3.6488131e-05
4.5796806e-05
5.8772435e-05
7.6746328e-05
0.00010212572
0.00013965768
0.00019987641
0.00031062158
0.0005687063
0.0014516507
2.4144107e-05
2.5949019e-05
2.9979861e-05
3.6415077e-05
4.5732671e-05
5.8721493e-05
7.6712174e-05
0.00010211006
0.00013965901
0.00019988823
0.00031062873
0.00056867233
0.0014514132
2.4068873e-05
2.5874821e-05
2.9908597e-05
3.634971e-05
4.5677036e-05
5.8679566e-05
7.6687059e-05
0.00010210289
0.00013966774
0.00019990604
0.0003106407
0.0005686436
0.0014511927
2.399922e-05
2.5806536e-05
2.9843888e-05
3.6291669e-05
4.5629418e-05
5.8646046e-05
7.6670275e-05
0.00010210343
0.00013968309
0.00019992915
0.00031065692
0.00056861973
0.001450989
2.3934996e-05
2.5743977e-05
2.9785472e-05
3.6240591e-05
4.5589333e-05
5.8620333e-05
7.666113e-05
0.00010211095
0.00013970434
0.00019995689
0.00031067685
0.00056860033
0.0014508015
2.3876037e-05
2.5686946e-05
2.973308e-05
3.6196107e-05
4.5556302e-05
5.8601844e-05
7.6658956e-05
0.00010212473
0.00013973078
0.00019998864
0.00031069998
0.00056858503
0.0014506297
2.382217e-05
2.5635235e-05
2.9686437e-05
3.6157851e-05
4.5529855e-05
5.8590007e-05
7.6663109e-05
0.00010214411
0.00013976176
0.00020002381
0.00031072585
0.00056857348
0.0014504729
2.377321e-05
2.558863e-05
2.9645264e-05
3.6125455e-05
4.5509527e-05
5.8584269e-05
7.6672971e-05
0.00010216842
0.00013979666
0.00020006185
0.00031075403
0.00056856536
0.0014503307
2.3728967e-05
2.5546909e-05
2.960928e-05
3.6098557e-05
4.5494865e-05
5.8584096e-05
7.668795e-05
0.00010219708
0.0001398349
0.00020010228
0.00031078415
0.0005685604
0.0014502021
2.3689243e-05
2.5509849e-05
2.9578202e-05
3.6076798e-05
4.5485428e-05
5.8588971e-05
7.6707482e-05
0.0001022295
0.00013987594
0.00020014463
0.00031081584
0.00056855834
0.0014500868
2.3653836e-05
2.547722e-05
2.9551749e-05
3.6059825e-05
4.5480787e-05
5.8598401e-05
7.6731034e-05
0.00010226515
0.0001399193
0.00020018849
0.00031084881
0.00056855899
0.001449984
2.3622542e-05
2.5448793e-05
2.9529641e-05
3.6047293e-05
4.5480525e-05
5.861191e-05
7.6758099e-05
0.00010230352
0.0001399645
0.00020023348
0.00031088277
0.00056856214
0.0014498931
2.3595152e-05
2.5424337e-05
2.9511601e-05
3.6038862e-05
4.5484243e-05
5.8629047e-05
7.6788197e-05
0.00010234415
0.00014001113
0.00020027923
0.00031091745
0.0005685676
0.0014498138
2.3571458e-05
2.5403622e-05
2.9497354e-05
3.6034204e-05
4.5491551e-05
5.864938e-05
7.6820876e-05
0.00010238659
0.00014005877
0.00020032543
0.0003109526
0.00056857514
0.0014497455
2.3551249e-05
2.5386417e-05
2.9486631e-05
3.6032997e-05
4.550208e-05
5.8672498e-05
7.685571e-05
0.00010243042
0.00014010707
0.00020037176
0.00031098798
0.00056858453
0.0014496876
2.3534318e-05
2.5372496e-05
2.9479169e-05
3.6034931e-05
4.5515471e-05
5.8698011e-05
7.6892299e-05
0.00010247527
0.00014015568
0.00020041795
0.00031102334
0.0005685955
0.0014496396
2.3520455e-05
2.5361633e-05
2.9474707e-05
3.6039705e-05
4.5531386e-05
5.8725552e-05
7.693027e-05
0.00010252079
0.0001402043
0.00020046372
0.00031105846
0.00056860778
0.0014496008
2.3509457e-05
2.5353609e-05
2.9472997e-05
3.604703e-05
4.5549499e-05
5.8754775e-05
7.6969275e-05
0.00010256664
0.00014025262
0.00020050885
0.00031109314
0.00056862111
0.0014495705
2.3501122e-05
2.5348207e-05
2.9473793e-05
3.6056631e-05
4.5569506e-05
5.8785358e-05
7.7008993e-05
0.00010261253
0.00014030041
0.00020055313
0.00031112719
0.00056863525
0.001449548
2.3495251e-05
2.5345216e-05
2.9476861e-05
3.6068243e-05
4.5591117e-05
5.8816999e-05
7.7049132e-05
0.00010265819
0.00014034744
0.00020059638
0.00031116047
0.00056865002
0.0014495324
2.3491652e-05
2.5344432e-05
2.9481975e-05
3.6081616e-05
4.5614063e-05
5.8849422e-05
7.7089425e-05
0.00010270339
0.00014039351
0.00020063846
0.00031119288
0.00056866527
0.0014495231
2.3490138e-05
2.5345658e-05
2.9488921e-05
3.6096514e-05
4.5638092e-05
5.8882371e-05
7.712963e-05
0.00010274792
0.00014043845
0.00020067925
0.00031122433
0.00056868092
0.0014495194
2.3490526e-05
2.5348705e-05
2.949749e-05
3.6112713e-05
4.5662969e-05
5.8915615e-05
7.7169533e-05
0.00010279159
0.00014048214
0.00020071866
0.00031125477
0.00056869692
0.0014495209
2.3492643e-05
2.5353389e-05
2.9507489e-05
3.6130005e-05
4.5688478e-05
5.894894e-05
7.7208939e-05
0.00010283424
0.00014052445
0.00020075662
0.00031128418
0.00056871323
0.0014495271
2.349632e-05
2.5359535e-05
2.951873e-05
3.6148192e-05
4.5714419e-05
5.8982154e-05
7.7247676e-05
0.00010287573
0.00014056528
0.00020079306
0.00031131251
0.00056872983
0.0014495376
2.3501394e-05
2.5366977e-05
2.9531039e-05
3.6167092e-05
4.5740606e-05
5.901508e-05
7.728559e-05
0.00010291595
0.00014060455
0.00020082795
0.00031133974
0.00056874665
0.0014495521
2.3507709e-05
2.5375555e-05
2.9544248e-05
3.6186532e-05
4.576687e-05
5.904756e-05
7.7322545e-05
0.00010295478
0.00014064218
0.00020086123
0.00031136583
0.00056876361
0.0014495705
2.3515118e-05
2.5385117e-05
2.95582e-05
3.6206354e-05
4.5793055e-05
5.9079452e-05
7.7358419e-05
0.00010299214
0.00014067812
0.00020089286
0.00031139071
0.00056878056
0.0014495924
2.3523478e-05
2.5395518e-05
2.9572749e-05
3.6226408e-05
4.5819018e-05
5.9110626e-05
7.7393109e-05
0.00010302794
0.00014071232
0.00020092281
0.00031141434
0.00056879736
0.0014496174
2.3532655e-05
2.5406624e-05
2.9587756e-05
3.6246559e-05
4.584463e-05
5.9140971e-05
7.7426521e-05
0.00010306212
0.00014074472
0.00020095104
0.00031143667
0.00056881383
0.001449645
2.3542521e-05
2.5418305e-05
2.9603094e-05
3.6266682e-05
4.5869777e-05
5.9170385e-05
7.7458582e-05
0.00010309464
0.00014077531
0.00020097754
0.00031145765
0.00056882969
0.0014496748
2.3552957e-05
2.5430442e-05
2.9618643e-05
3.6286663e-05
4.5894355e-05
5.9198787e-05
7.748923e-05
0.00010312545
0.00014080407
0.00020100231
0.00031147725
0.00056884462
0.001449706
2.356385e-05
2.5442923e-05
2.9634294e-05
3.6306401e-05
4.5918275e-05
5.9226105e-05
7.751842e-05
0.00010315454
0.00014083101
0.00020102534
0.0003114954
0.00056885861
0.0014497382
2.3575098e-05
2.5455645e-05
2.9649949e-05
3.6325804e-05
4.5941463e-05
5.9252285e-05
7.754612e-05
0.00010318191
0.00014085615
0.0002010467
0.00031151201
0.00056887181
0.001449771
2.3586603e-05
2.5468514e-05
2.9665519e-05
3.6344794e-05
4.5963853e-05
5.9277283e-05
7.7572315e-05
0.00010320756
0.00014087951
0.00020106635
0.00031152716
0.00056888428
0.001449804
2.3598278e-05
2.5481445e-05
2.9680923e-05
3.6363301e-05
4.5985394e-05
5.930107e-05
7.7597e-05
0.00010323151
0.00014090114
0.00020108428
0.00031154098
0.00056889612
0.001449837
2.3610041e-05
2.5494358e-05
2.969609e-05
3.6381266e-05
4.6006044e-05
5.9323627e-05
7.7620183e-05
0.0001032538
0.00014092102
0.00020110057
0.00031155357
0.00056890741
0.0014498699
2.3621819e-05
2.5507183e-05
2.9710957e-05
3.639864e-05
4.6025771e-05
5.9344944e-05
7.7641874e-05
0.00010327445
0.00014093919
0.00020111533
0.00031156503
0.00056891822
0.0014499025
2.3633545e-05
2.5519858e-05
2.972547e-05
3.641538e-05
4.6044552e-05
5.9365022e-05
7.7662102e-05
0.00010329344
0.00014095571
0.00020112865
0.00031157545
0.0005689286
0.0014499348
2.3645157e-05
2.5532325e-05
2.973958e-05
3.6431452e-05
4.6062373e-05
5.9383869e-05
7.7680854e-05
0.00010331083
0.00014097067
0.00020114061
0.00031158489
0.0005689386
0.0014499669
2.3656602e-05
2.5544533e-05
2.9753245e-05
3.644683e-05
4.6079227e-05
5.9401475e-05
7.7698148e-05
0.00010332668
0.00014098413
0.00020115127
0.0003115934
0.00056894821
0.0014499987
2.3667831e-05
2.5556439e-05
2.9766433e-05
3.6461496e-05
4.6095098e-05
5.941784e-05
7.7714022e-05
0.00010334103
0.00014099616
0.00020116071
0.00031160103
0.00056895742
0.0014500302
2.36788e-05
2.5568004e-05
2.9779113e-05
3.6475424e-05
4.6109975e-05
5.9432983e-05
7.7728517e-05
0.00010335396
0.00014100684
0.00020116899
0.00031160781
0.0005689662
0.0014500613
2.3689472e-05
2.5579195e-05
2.9791257e-05
3.6488596e-05
4.6123861e-05
5.9446928e-05
7.7741677e-05
0.00010336551
0.00014101621
0.00020117615
0.00031161375
0.00056897448
0.001450092
2.3699812e-05
2.5589979e-05
2.980284e-05
3.6501003e-05
4.6136765e-05
5.9459703e-05
7.7753549e-05
0.00010337575
0.00014102435
0.00020118225
0.00031161887
0.00056898222
0.001450122
2.3709788e-05
2.5600328e-05
2.9813843e-05
3.6512641e-05
4.61487e-05
5.9471342e-05
7.7764183e-05
0.00010338474
0.00014103132
0.00020118735
0.00031162321
0.00056898936
0.0014501512
2.3719375e-05
2.561022e-05
2.9824254e-05
3.6523512e-05
4.6159686e-05
5.9481883e-05
7.7773632e-05
0.00010339254
0.00014103719
0.0002011915
0.00031162679
0.00056899587
0.0014501793
2.3728552e-05
2.5619639e-05
2.9834067e-05
3.6533622e-05
4.6169747e-05
5.9491366e-05
7.7781952e-05
0.00010339921
0.00014104201
0.00020119476
0.00031162965
0.00056900174
0.0014502062
2.3737301e-05
2.5628572e-05
2.9843278e-05
3.6542983e-05
4.6178911e-05
5.9499835e-05
7.7789201e-05
0.00010340484
0.00014104588
0.0002011972
0.00031163185
0.000569007
0.0014502317
2.3745613e-05
2.5637013e-05
2.985189e-05
3.655161e-05
4.618721e-05
5.9507338e-05
7.779544e-05
0.00010340947
0.00014104885
0.00020119889
0.00031163343
0.00056901168
0.0014502557
2.3753479e-05
2.5644959e-05
2.985991e-05
3.6559525e-05
4.6194677e-05
5.9513925e-05
7.7800731e-05
0.00010341319
0.00014105099
0.00020119989
0.00031163448
0.00056901584
0.0014502781
2.3760895e-05
2.5652409e-05
2.9867346e-05
3.6566747e-05
4.6201349e-05
5.9519645e-05
7.7805135e-05
0.00010341607
0.00014105239
0.00020120029
0.00031163505
0.00056901956
0.001450299
2.3767862e-05
2.5659369e-05
2.9874212e-05
3.6573302e-05
4.6207264e-05
5.952455e-05
7.7808715e-05
0.00010341816
0.00014105311
0.00020120013
0.00031163521
0.00056902291
0.0014503185
2.3774381e-05
2.5665844e-05
2.9880523e-05
3.6579216e-05
4.6212462e-05
5.9528692e-05
7.781153e-05
0.00010341955
0.00014105322
0.0002011995
0.00031163502
0.00056902595
0.0014503366