/*--------------------------------*- C++ -*----------------------------------*\
| =========                 |                                                 |
| \\      /  F ield         | OpenFOAM: The Open Source CFD Toolbox           |
|  \\    /   O peration     | Version:  2506                                  |
|   \\  /    A nd           | Website:  www.openfoam.com                      |
|    \\/     M anipulation  |                                                 |
\*---------------------------------------------------------------------------*/
FoamFile
{
    version     2.0;
    format      ascii;
    arch        "LSB;label=32;scalar=64";
    class       volScalarField;
    location    "13000/water";
    object      k;
}
// * * * * * * * * * * * * * * * * * * * * * * * * * * * * * * * * * * * * * //

dimensions      [0 2 -2 0 0 0 0];

internalField   nonuniform List<scalar> 
2600
(
0.0001992401
0.00019923925
0.00019923929
0.00019923963
0.00019923982
0.00019923914
0.00019923438
0.00019921375
0.00019914651
0.00019904325
0.00019990841
0.00021454267
0.00040955349
0.00017237279
0.00017237614
0.00017237826
0.00017238051
0.0001723821
0.00017237949
0.00017235884
0.00017227555
0.000172027
0.00017162102
0.00017329371
0.00020304806
0.00052391648
0.00015132731
0.00015133049
0.00015133306
0.00015133552
0.00015133516
0.00015132207
0.00015126283
0.00015106462
0.00015055477
0.00014985944
0.0001528957
0.00019760629
0.00057958156
0.00013448336
0.00013448533
0.00013448764
0.00013448905
0.00013448325
0.00013445009
0.00013432997
0.00013398205
0.00013321503
0.00013247936
0.00013787909
0.00019702317
0.00059640815
0.00012075551
0.00012075697
0.00012075853
0.00012075718
0.00012074152
0.0001206782
0.00012048052
0.00011997843
0.0001190486
0.00011870929
0.00012776334
0.00020116854
0.00059206885
0.0001093899
0.00010939088
0.000109391
0.00010938492
0.00010935483
0.00010925313
0.00010897207
0.00010834649
0.00010742643
0.0001080609
0.00012226457
0.00021023394
0.00057809221
9.984982e-05
9.9850093e-05
9.9847944e-05
9.9835056e-05
9.9786463e-05
9.9641865e-05
9.9284958e-05
9.859999e-05
9.7925044e-05
0.00010022517
0.00012123091
0.00022425603
0.00056106272
9.1744874e-05
9.174416e-05
9.1738826e-05
9.1717148e-05
9.1647174e-05
9.1460104e-05
9.1049018e-05
9.0398665e-05
9.0258419e-05
9.5030413e-05
0.00012461431
0.00024286356
0.00054449405
8.4785472e-05
8.4783454e-05
8.4774018e-05
8.4741918e-05
8.4649457e-05
8.4426122e-05
8.3996574e-05
8.3502376e-05
8.4241543e-05
9.2421343e-05
0.00013239492
0.00026511347
0.00053012765
7.8752977e-05
7.8749319e-05
7.8734951e-05
7.8691403e-05
7.8577619e-05
7.8330528e-05
7.7932172e-05
7.7743318e-05
7.9771153e-05
9.2438122e-05
0.00014444361
0.00028951151
0.0005186607
7.3479682e-05
7.3474066e-05
7.3454131e-05
7.3398964e-05
7.3267704e-05
7.3016085e-05
7.2712929e-05
7.3009357e-05
7.6815021e-05
9.5182833e-05
0.00016036324
0.00031428525
0.00051014247
6.8835097e-05
6.8827266e-05
6.8801436e-05
6.8735571e-05
6.8593744e-05
6.836405e-05
6.8235745e-05
6.9234209e-05
7.5403716e-05
0.00010076472
0.00017939076
0.00033780739
0.0005042266
6.4716374e-05
6.4706175e-05
6.4674551e-05
6.4600233e-05
6.4458202e-05
6.4284863e-05
6.4429045e-05
6.6391811e-05
7.5619872e-05
0.0001092241
0.00020043528
0.00035894529
0.00050037283
6.1041501e-05
6.1028932e-05
6.0992164e-05
6.091321e-05
6.0785257e-05
6.0711783e-05
6.1247563e-05
6.4493003e-05
7.7580807e-05
0.00012045028
0.00022225715
0.00037717552
0.0004980107
5.7744396e-05
5.7729653e-05
5.7689074e-05
5.7611142e-05
5.751606e-05
5.7596592e-05
5.8669223e-05
6.3582872e-05
8.1411587e-05
0.00013412437
0.00024370832
0.00039247762
0.00049664628
5.4771313e-05
5.4754847e-05
5.4712615e-05
5.4643526e-05
5.4605384e-05
5.4906753e-05
5.6693486e-05
6.3736861e-05
8.7208043e-05
0.00014971788
0.00026392364
0.00040513366
0.00049590625
5.2078186e-05
5.206076e-05
5.2020025e-05
5.1970154e-05
5.2019282e-05
5.2623661e-05
5.5340605e-05
6.5053658e-05
9.4994185e-05
0.00016655656
0.0002823955
0.0004155487
0.00049553614
4.9628635e-05
4.9611393e-05
4.9576492e-05
4.9559258e-05
4.9733503e-05
5.0741693e-05
5.4651195e-05
6.7643172e-05
0.00010468473
0.00018392817
0.00029893687
0.00042413794
0.00049537652
4.7392458e-05
4.7377004e-05
4.7353699e-05
4.7386176e-05
4.773248e-05
4.9267886e-05
5.4685329e-05
7.1608743e-05
0.00011606686
0.00020119288
0.00031358495
0.0004312733
0.0004953351
4.5344476e-05
4.5332971e-05
4.5328746e-05
4.5432431e-05
4.600877e-05
4.8222045e-05
5.5520139e-05
7.7024462e-05
0.0001288111
0.00021785898
0.00032650009
0.00043726613
0.00049536294
4.3463657e-05
4.3458933e-05
4.3483358e-05
4.3685127e-05
4.4562868e-05
4.7637066e-05
5.7244888e-05
8.3911106e-05
0.00014251076
0.00023360813
0.00033789056
0.00044236711
0.00049543702
4.1732429e-05
4.173814e-05
4.1803329e-05
4.2136614e-05
4.3403329e-05
4.7559128e-05
5.9952699e-05
9.2216774e-05
0.00015673762
0.00024827796
0.00034796834
0.00044677301
0.00049554866
4.0136167e-05
4.015697e-05
4.0278148e-05
4.0784372e-05
4.2547129e-05
4.8047288e-05
6.3728702e-05
0.00010180889
0.00017109624
0.00026182258
0.0003569282
0.00045063571
0.00049569617
3.8662802e-05
3.8704582e-05
3.8900797e-05
3.9631107e-05
4.2020194e-05
4.9171841e-05
6.8635431e-05
0.00011248166
0.0001852623
0.00027427018
0.00036494028
0.00045407114
0.00049588069
3.7302531e-05
3.7372692e-05
3.7667676e-05
3.8685008e-05
4.1857944e-05
5.1010817e-05
7.4697748e-05
0.00012397798
0.00019899861
0.00028568912
0.00037214923
0.00045716736
0.00049610392
3.6047628e-05
3.6155447e-05
3.6578682e-05
3.7960182e-05
4.2105652e-05
5.3644139e-05
8.1890768e-05
0.00013601989
0.00021215193
0.00029616533
0.00037867608
0.00045999117
0.00049636709
3.4892327e-05
3.5049398e-05
3.5637398e-05
3.7477201e-05
4.2818255e-05
5.7145346e-05
9.0134491e-05
0.00014833915
0.00022463802
0.00030578893
0.00038462123
0.0004625934
0.00049667064
3.383279e-05
3.4053569e-05
3.4851411e-05
3.7263736e-05
4.4059204e-05
6.1571464e-05
9.9297383e-05
0.00016070076
0.00023642316
0.00031464713
0.00039006764
0.00046501299
0.00049701416
3.2867148e-05
3.316962e-05
3.4232755e-05
3.7355162e-05
4.589791e-05
6.6952453e-05
0.00010920861
0.00017291579
0.00024750737
0.00032282077
0.00039508379
0.00046727996
0.00049739654
3.1995627e-05
3.2402111e-05
3.3798454e-05
3.7794962e-05
4.8405428e-05
7.3282438e-05
0.00011967597
0.00018484396
0.00025791153
0.00033038288
0.00039972633
0.00046941774
0.00049781615
3.1220754e-05
3.1758868e-05
3.3571166e-05
3.8634689e-05
5.16483e-05
8.0515036e-05
0.00013050501
0.00019638896
0.00026766839
0.00033739835
0.00040404224
0.00047144508
0.00049827105
3.0547674e-05
3.1251458e-05
3.3579859e-05
3.9933128e-05
5.5680956e-05
8.8564413e-05
0.00014151526
0.0002074904
0.00027681665
0.00034392427
0.00040806987
0.00047336165
0.00049875826
2.9984563e-05
3.0895778e-05
3.3860461e-05
4.1754323e-05
6.0537584e-05
9.7312151e-05
0.00015255089
0.00021811501
0.00028539698
0.00035000997
0.00041183983
0.00047517683
0.00049927448
2.9543172e-05
3.071274e-05
3.4456303e-05
4.416415e-05
6.6225005e-05
0.00010661843
0.0001634853
0.00022824915
0.00029345001
0.00035569879
0.00041537498
0.00047690098
0.00049981638
2.9239498e-05
3.072904e-05
3.5418148e-05
4.7225364e-05
7.2718215e-05
0.00011633497
0.00017422102
0.00023789273
0.00030101459
0.00036102772
0.000418694
0.00047854313
0.00050038114
2.9094595e-05
3.0977951e-05
3.6803501e-05
5.0991333e-05
7.9959882e-05
0.00012631696
0.00018468652
0.00024705469
0.00030812684
0.00036602759
0.00042181619
0.00048011509
0.00050096676
2.9135496e-05
3.1500046e-05
3.8674859e-05
5.5499187e-05
8.7864163e-05
0.00013643209
0.00019483195
0.00025575014
0.00031482083
0.00037072328
0.00042475508
0.00048162854
0.000501572
2.9396231e-05
3.2343668e-05
4.109663e-05
6.0763501e-05
9.6324069e-05
0.00014656574
0.00020462431
0.0002639967
0.00032112526
0.00037513787
0.00042753007
0.00048308916
0.00050219529
2.991884e-05
3.3564907e-05
4.4130582e-05
6.677188e-05
0.00010522078
0.00015662301
0.00021404417
0.00027181504
0.00032706605
0.00037928746
0.00043015897
0.00048450265
0.00050283511
3.075424e-05
3.5226722e-05
4.7830028e-05
7.3483547e-05
0.00011443286
0.00016652782
0.000223081
0.00027922362
0.00033266466
0.00038319521
0.00043265449
0.00048587307
0.00050348988
3.1962692e-05
3.7396838e-05
5.2233342e-05
8.0831448e-05
0.00012384407
0.00017622135
0.00023173236
0.00028624168
0.00033793721
0.00038688251
0.00043502772
0.00048720351
0.00050415803
3.3613501e-05
4.0144086e-05
5.7357841e-05
8.8727385e-05
0.00013334835
0.0001856585
0.00023999853
0.00029288455
0.00034290598
0.00039036648
0.0004372879
0.00048849633
0.00050483796
3.5783404e-05
4.3533068e-05
6.3195303e-05
9.7069223e-05
0.00014285305
0.00019480682
0.00024788467
0.0002991623
0.00034759329
0.00039366186
0.00043944268
0.00048975324
0.00050552811
3.8553065e-05
4.7617429e-05
6.9710111e-05
0.00010574826
0.00015227864
0.00020364077
0.00025539328
0.00030509326
0.00035201757
0.00039678116
0.00044149841
0.00049097544
0.00050622691
4.2001153e-05
5.243256e-05
7.6840715e-05
0.0001146564
0.00016156
0.00021214493
0.00026252192
0.00031069681
0.00035619498
0.00039973503
0.00044346029
0.00049216366
0.00050693282
4.6195919e-05
5.7988961e-05
8.4503812e-05
0.0001236906
0.00017064177
0.000220299
0.00026928193
0.00031598927
0.00036013924
0.00040253237
0.00044533251
0.00049331826
0.00050764432
5.1185018e-05
6.4267711e-05
9.2600633e-05
0.00013275649
0.00017947938
0.00022808588
0.00027568469
0.00032098502
0.00036386201
0.00040518055
0.00044711835
0.00049443921
0.00050835988
5.6985363e-05
7.1219291e-05
0.00010102457
0.00014177165
0.00018802207
0.00023550303
0.0002817403
0.00032569629
0.00036737302
0.00040768555
0.00044882025
0.00049552614
0.00050907799
6.3575483e-05
7.8766084e-05
0.00010966808
0.00015065102
0.000196237
0.00024254864
0.00028745745
0.0003301333
0.00037068023
0.00041005205
0.00045043987
0.00049657836
0.00050979712
7.0893495e-05
8.6809033e-05
0.000118418
0.00015932163
0.0002040999
0.00024922138
0.00029284335
0.00033430427
0.00037378984
0.00041228348
0.00045197812
0.00049759483
0.00051051571
7.8838279e-05
9.5225388e-05
0.00012716548
0.00016772589
0.00021159053
0.00025551999
0.00029790358
0.00033821555
0.00037670648
0.00041438214
0.00045343518
0.00049857419
0.00051123214
8.727177e-05
0.0001038814
0.00013581418
0.00017581508
0.00021869192
0.00026144298
0.00030264214
0.00034187168
0.00037943325
0.00041634919
0.00045481055
0.0004995147
0.00051194473
9.603622e-05
0.00011264292
0.00014427887
0.00018354852
0.00022539
0.00026698863
0.0003070616
0.00034527556
0.00038197182
0.00041818478
0.00045610304
0.00050041432
0.00051265169
0.00010496814
0.00012138221
0.00015248591
0.00019089302
0.00023167335
0.00027215517
0.00031116333
0.00034842866
0.00038432261
0.00041988808
0.00045731083
0.00050127064
0.00051335113
0.00011391063
0.00012998326
0.00016037328
0.00019782237
0.00023753334
0.00027694109
0.00031494782
0.00035133129
0.00038648498
0.00042145744
0.00045843154
0.00050208095
0.000514041
0.00012272253
0.00013834521
0.00016789037
0.00020431697
0.00024296425
0.00028134553
0.00031841516
0.00035398296
0.00038845746
0.00042289052
0.00045946232
0.00050284227
0.00051471912
0.00013128393
0.00014638432
0.00017499757
0.00021036348
0.00024796342
0.00028536876
0.00032156551
0.00035638279
0.00039023808
0.00042418455
0.00046039997
0.0005035514
0.00051538316
0.00013949848
0.00015403433
0.00018166562
0.00021595444
0.00025253143
0.00028901262
0.0003243996
0.00035852995
0.00039182472
0.00042533656
0.00046124117
0.00050420509
0.00051603067
0.0001472931
0.00016124588
0.00018787487
0.00022108785
0.00025667213
0.00029228086
0.00032691921
0.00036042415
0.00039321547
0.00042634369
0.00046198263
0.0005048001
0.0005166591
0.00015461617
0.00016798504
0.00019361432
0.0002257666
0.00026039252
0.00029517938
0.00032912753
0.00036206601
0.00039440908
0.00042720348
0.00046262138
0.0005053334
0.00051726586
0.00016143472
0.0001742315
0.00019888065
0.00022999799
0.00026370261
0.00029771635
0.00033102951
0.00036345746
0.00039540521
0.00042791421
0.00046315498
0.00050580232
0.00051784836
0.00016773146
0.00017997646
0.00020367707
0.00023379306
0.00026661511
0.0002999022
0.000332632
0.00036460199
0.00039620484
0.00042847516
0.00046358175
0.00050620472
0.0005184041
0.0001735017
0.00018522061
0.0002080123
0.00023716602
0.00026914511
0.0003017495
0.00033394381
0.00036550488
0.00039681042
0.00042888687
0.000463901
0.00050653911
0.00051893074
0.00017875065
0.0001899722
0.00021189953
0.00024013368
0.00027130965
0.00030327272
0.00033497569
0.0003661732
0.00039722606
0.00042915125
0.00046411316
0.00050680481
0.00051942617
0.00018349101
0.00019424529
0.00021535544
0.00024271482
0.00027312736
0.00030448802
0.00033574019
0.00036661587
0.00039745759
0.00042927177
0.0004642199
0.000507002
0.00051988856
0.00018774101
0.00019805832
0.00021839938
0.00024492975
0.00027461803
0.00030541289
0.00033625141
0.00036684347
0.00039751249
0.00042925336
0.00046422413
0.0005071318
0.00052031645
0.00019152277
0.00020143282
0.00022105258
0.00024679981
0.0002758023
0.00030606583
0.0003365248
0.00036686812
0.0003973998
0.00042910246
0.00046413005
0.00050719619
0.00052070875
0.00019486097
0.00020439241
0.00022333758
0.00024834697
0.00027670129
0.00030646609
0.00033657684
0.00036670323
0.00039712995
0.00042882683
0.00046394296
0.00050719805
0.0005210648
0.00019778188
0.000206962
0.00022527763
0.00024959347
0.00027733628
0.0003066333
0.00033642476
0.00036636324
0.00039671457
0.00042843538
0.00046366922
0.000507141
0.00052138437
0.00020031251
0.00020916712
0.00022689629
0.00025056158
0.00027772853
0.00030658727
0.00033608627
0.00036586332
0.00039616617
0.00042793801
0.00046331603
0.00050702932
0.00052166764
0.00020248007
0.00021103339
0.00022821707
0.00025127329
0.00027789899
0.00030634769
0.00033557926
0.00036521915
0.00039549795
0.00042734531
0.00046289128
0.00050686782
0.00052191517
0.00020431151
0.00021258621
0.00022926315
0.00025175017
0.00027786816
0.00030593393
0.00033492159
0.00036444659
0.00039472349
0.00042666836
0.00046240329
0.0005066617
0.00052212789
0.00020583314
0.00021385039
0.00023005717
0.00025201317
0.00027765592
0.00030536491
0.00033413083
0.00036356149
0.00039385653
0.00042591848
0.00046186067
0.00050641637
0.00052230707
0.00020707048
0.00021485002
0.00023062106
0.00025208253
0.00027728145
0.00030465889
0.00033322412
0.00036257943
0.00039291071
0.00042510703
0.00046127209
0.00050613735
0.0005224542
0.00020804802
0.00021560822
0.00023097592
0.00025197766
0.00027676309
0.00030383338
0.00033221799
0.00036151557
0.0003918994
0.00042424518
0.0004606461
0.00050583014
0.00052257104
0.00020878915
0.00021614713
0.00023114192
0.00025171708
0.00027611828
0.00030290508
0.00033112821
0.00036038445
0.00039083551
0.00042334375
0.00045999104
0.0005055001
0.00052265946
0.00020931608
0.00021648779
0.00023113824
0.00025131838
0.00027536356
0.00030188974
0.00032996974
0.00035919992
0.00038973132
0.00042241308
0.00045931484
0.00050515235
0.00052272151
0.0002096498
0.0002166501
0.00023098306
0.00025079816
0.00027451448
0.00030080219
0.00032875664
0.00035797499
0.00038859844
0.00042146288
0.00045862495
0.00050479174
0.00052275926
0.0002098101
0.00021665282
0.0002306935
0.00025017205
0.00027358561
0.00029965625
0.000327502
0.00035672178
0.00038744763
0.00042050219
0.00045792829
0.00050442275
0.00052277483
0.0002098155
0.00021651359
0.00023028565
0.0002494547
0.00027259054
0.00029846475
0.00032621794
0.00035545147
0.00038628882
0.0004195393
0.00045723115
0.00050404946
0.00052277036
0.00020968336
0.00021624887
0.00022977455
0.00024865974
0.00027154188
0.00029723956
0.00032491559
0.00035417432
0.00038513104
0.0004185817
0.0004565392
0.00050367556
0.00052274793
0.00020942986
0.00021587404
0.00022917422
0.00024779986
0.00027045125
0.00029599152
0.00032360508
0.00035289958
0.00038398244
0.00041763607
0.00045585746
0.00050330431
0.00052270955
0.00020907002
0.00021540339
0.0002284977
0.00024688679
0.00026932937
0.00029473053
0.00032229558
0.00035163557
0.00038285023
0.00041670832
0.00045519032
0.00050293857
0.00052265719
0.00020861778
0.00021485019
0.00022775703
0.00024593135
0.000268186
0.00029346557
0.00032099533
0.00035038968
0.00038174078
0.00041580356
0.00045454151
0.00050258077
0.00052259269
0.00020808602
0.00021422666
0.00022696333
0.00024494346
0.00026703006
0.00029220471
0.00031971164
0.00034916841
0.00038065958
0.00041492615
0.0004539142
0.00050223296
0.0005225178
0.00020748662
0.00021354409
0.00022612683
0.0002439322
0.0002658696
0.00029095516
0.00031845095
0.00034797737
0.00037961133
0.00041407971
0.00045331084
0.00050189538
0.0005224341
0.0002068305
0.00021281284
0.00022525688
0.00024290581
0.00026471188
0.00028972333
0.00031721888
0.00034682137
0.00037859992
0.00041326713
0.00045273318
0.00050156776
0.0005223429
0.00020612768
0.00021204241
0.00022436204
0.00024187176
0.00026356337
0.00028851484
0.00031602028
0.00034570447
0.00037762856
0.00041249068
0.00045218159
0.00050125097
0.00052224542
0.00020538731
0.00021124146
0.00022345007
0.00024083681
0.00026242984
0.0002873346
0.00031485926
0.00034462998
0.0003766997
0.00041175179
0.00045165673
0.00050094652
0.00052214286
0.00020461773
0.00021041787
0.000222528
0.00023980698
0.00026131638
0.00028618682
0.00031373927
0.00034360062
0.00037581528
0.00041105095
0.0004511588
0.00050065636
0.0005220365
0.00020382652
0.00020957879
0.00022160216
0.00023878767
0.00026022743
0.00028507512
0.00031266312
0.0003426184
0.00037497623
0.00041038839
0.00045068903
0.00050038148
0.00052192753
0.00020302055
0.00020873067
0.00022067826
0.00023778364
0.00025916685
0.00028400249
0.00031163303
0.0003416847
0.00037418303
0.00040976437
0.00045024825
0.0005001226
0.000521817
0.000202206
0.00020787932
0.00021976136
0.00023679908
0.00025813794
0.00028297141
0.00031065068
0.00034080027
0.0003734354
0.00040917955
0.00044983687
0.00049988014
0.00052170586
0.00020138845
0.00020702994
0.00021885597
0.00023583767
0.0002571435
0.00028198382
0.00030971711
0.00033996506
0.00037273369
0.00040863407
0.00044945489
0.00049965424
0.00052159495
0.00020057287
0.00020618718
0.00021796608
0.00023490255
0.00025618581
0.00028104115
0.00030883274
0.00033917903
0.00037207798
0.00040812776
0.00044910206
0.00049944485
0.00052148501
0.00019976371
0.00020535513
0.00021709517
0.00023399643
0.00025526674
0.00028014432
0.00030799745
0.00033844228
0.00037146799
0.0004076601
0.00044877788
0.00049925176
0.00052137666
0.00019896489
0.00020453745
0.00021624628
0.0002331216
0.00025438765
0.00027929344
0.00030721144
0.00033775455
0.00037090313
0.00040723036
0.00044848167
0.00049907461
0.00052127045
0.00019817991
0.00020373731
0.00021542203
0.00023227981
0.00025354916
0.00027848894
0.00030647459
0.00033711529
0.00037038255
0.00040683758
0.00044821258
0.00049891296
0.00052116686
0.00019741181
0.00020295748
0.00021462449
0.00023147225
0.000252752
0.00027773093
0.00030578648
0.00033652367
0.00036990518
0.00040648062
0.00044796966
0.00049876629
0.00052106627
0.00019666314
0.00020220017
0.00021385531
0.00023070002
0.00025199663
0.00027701928
0.00030514648
0.00033597867
0.00036946976
0.00040615821
0.00044775186
0.00049863401
0.00052096901
0.00019593603
0.00020146726
0.00021311591
0.00022996392
0.00025128323
0.0002763536
0.00030455371
0.00033547905
0.00036907488
0.00040586898
0.00044755805
0.00049851549
0.00052087536
0.00019523229
0.00020076031
0.00021240739
0.00022926453
0.00025061177
0.00027573328
0.00030400708
0.00033502341
0.00036871901
0.00040561144
0.00044738702
0.00049841007
0.00052078551
0.00019455343
0.00020008064
0.00021173063
0.00022860215
0.000249982
0.00027515753
0.00030350536
0.00033461022
0.00036840048
0.00040538404
0.00044723757
0.00049831704
0.00052069963
0.00019390071
0.00019942926
0.00021108626
0.0002279769
0.00024939345
0.00027462536
0.00030304716
0.00033423783
0.00036811759
0.0004051852
0.00044710843
0.0004982357
0.00052061784
0.0001932751
0.00019880698
0.00021047468
0.00022738868
0.0002488455
0.00027413566
0.00030263097
0.00033390448
0.00036786853
0.00040501327
0.00044699834
0.00049816534
0.0005205402
0.0001926774
0.00019821439
0.00020989611
0.0002268372
0.00024833734
0.00027368715
0.00030225516
0.00033360837
0.00036765149
0.00040486664
0.00044690605
0.00049810525
0.00052046674
0.00019210815
0.00019765185
0.00020935055
0.00022632204
0.00024786805
0.00027327849
0.00030191806
0.00033334765
0.00036746463
0.00040474368
0.00044683032
0.00049805473
0.0005203975
0.00019156773
0.00019711958
0.00020883788
0.00022584261
0.0002474366
0.00027290822
0.00030161792
0.00033312045
0.00036730615
0.00040464281
0.00044676997
0.00049801314
0.00052033245
0.00019105634
0.0001966176
0.00020835779
0.00022539819
0.00024704184
0.00027257482
0.00030135297
0.00033292488
0.00036717423
0.00040456247
0.00044672384
0.00049797983
0.00052027157
0.00019057402
0.0001961458
0.00020790987
0.00022498798
0.00024668255
0.00027227673
0.00030112142
0.00033275909
0.0003670671
0.00040450115
0.00044669083
0.00049795419
0.00052021481
0.00019012066
0.00019570392
0.00020749357
0.00022461106
0.00024635743
0.00027201233
0.00030092145
0.00033262122
0.00036698304
0.00040445741
0.00044666987
0.00049793565
0.00052016212
0.00018969602
0.00019529159
0.00020710822
0.00022426642
0.00024606513
0.00027177999
0.00030075124
0.00033250943
0.00036692034
0.0004044298
0.00044665993
0.00049792364
0.00052011341
0.00018929974
0.0001949083
0.00020675308
0.00022395297
0.00024580423
0.00027157801
0.00030060899
0.0003324219
0.00036687734
0.00040441696
0.00044666002
0.00049791758
0.00052006858
0.00018893134
0.00019455345
0.00020642728
0.00022366955
0.00024557327
0.00027140472
0.00030049286
0.00033235683
0.00036685238
0.00040441752
0.00044666913
0.00049791693
0.00052002751
0.00018859022
0.00019422632
0.0002061299
0.00022341494
0.00024537075
0.00027125838
0.00030040104
0.00033231245
0.00036684388
0.00040443016
0.00044668632
0.00049792114
0.00051999005
0.00018827572
0.00019392615
0.00020585991
0.00022318788
0.00024519514
0.0002711373
0.00030033175
0.00033228701
0.00036685026
0.0004044536
0.00044671066
0.00049792965
0.00051995606
0.00018798707
0.00019365204
0.00020561627
0.00022298704
0.00024504489
0.00027103976
0.00030028323
0.00033227882
0.00036687002
0.00040448661
0.00044674126
0.00049794197
0.00051992537
0.00018772344
0.0001934031
0.00020539786
0.0002228111
0.00024491848
0.00027096408
0.00030025376
0.00033228627
0.00036690173
0.00040452805
0.00044677729
0.00049795762
0.00051989783
0.00018748397
0.00019317835
0.00020520355
0.00022265871
0.00024481438
0.00027090865
0.00030024171
0.0003323078
0.00036694404
0.00040457683
0.00044681802
0.00049797618
0.00051987329
0.00018726774
0.00019297681
0.00020503219
0.00022252856
0.0002447311
0.00027087188
0.00030024551
0.00033234197
0.00036699571
0.000404632
0.00044686278
0.00049799728
0.0005198516
0.00018707381
0.00019279744
0.00020488261
0.00022241932
0.00024466721
0.00027085226
0.00030026367
0.00033238741
0.00036705559
0.00040469266
0.00044691096
0.0004980206
0.00051983264
0.00018690123
0.00019263924
0.00020475368
0.0002223297
0.00024462128
0.00027084835
0.0003002948
0.00033244287
0.00036712263
0.00040475802
0.00044696204
0.00049804588
0.00051981629
0.000186749
0.00019250114
0.00020464424
0.00022225843
0.00024459197
0.00027085875
0.00030033756
0.00033250714
0.00036719583
0.00040482733
0.00044701553
0.00049807285
0.00051980241
0.00018661614
0.00019238212
0.00020455313
0.00022220425
0.00024457794
0.00027088213
0.00030039068
0.0003325791
0.00036727427
0.00040489991
0.00044707098
0.00049810125
0.00051979089
0.00018650163
0.00019228109
0.00020447922
0.00022216592
0.00024457788
0.00027091718
0.00030045293
0.00033265767
0.00036735706
0.00040497507
0.00044712791
0.00049813082
0.00051978157
0.00018640444
0.000192197
0.00020442134
0.00022214221
0.00024459053
0.00027096264
0.00030052312
0.00033274179
0.00036744333
0.00040505215
0.00044718586
0.00049816125
0.00051977429
0.00018632352
0.00019212875
0.00020437835
0.0002221319
0.00024461462
0.00027101727
0.0003006001
0.00033283043
0.00036753222
0.0004051305
0.00044724436
0.00049819226
0.00051976889
0.00018625782
0.00019207526
0.00020434909
0.00022213379
0.00024464894
0.00027107986
0.00030068274
0.00033292262
0.00036762293
0.00040520947
0.00044730295
0.00049822355
0.00051976519
0.00018620627
0.00019203544
0.00020433245
0.00022214671
0.00024469229
0.00027114928
0.00030076999
0.00033301743
0.00036771468
0.00040528847
0.00044736121
0.00049825482
0.00051976301
0.00018616785
0.00019200822
0.00020432731
0.00022216952
0.00024474355
0.00027122444
0.00030086086
0.00033311401
0.00036780678
0.00040536697
0.00044741876
0.00049828586
0.0005197622
0.00018614153
0.00019199258
0.0002043326
0.00022220114
0.00024480165
0.00027130432
0.00030095444
0.00033321158
0.00036789863
0.00040544453
0.00044747529
0.00049831646
0.00051976261
0.00018612633
0.00019198751
0.00020434733
0.00022224056
0.0002448656
0.00027138802
0.00030104993
0.00033330948
0.0003679897
0.00040552077
0.00044753058
0.00049834651
0.00051976413
0.00018612131
0.00019199207
0.00020437053
0.00022228684
0.0002449345
0.00027147471
0.00030114661
0.00033340714
0.00036807958
0.00040559544
0.00044758449
0.00049837595
0.00051976667
0.00018612558
0.00019200537
0.00020440131
0.0002223391
0.00024500753
0.00027156367
0.00030124389
0.00033350409
0.00036816794
0.00040566833
0.00044763693
0.00049840475
0.00051977015
0.00018613831
0.00019202656
0.00020443884
0.00022239654
0.00024508396
0.00027165423
0.00030134122
0.00033359993
0.00036825454
0.00040573932
0.00044768784
0.0004984329
0.0005197745
0.00018615868
0.00019205485
0.00020448233
0.00022245841
0.00024516309
0.00027174582
0.00030143814
0.00033369433
0.00036833913
0.00040580827
0.00044773718
0.00049846039
0.00051977967
0.00018618594
0.00019208947
0.00020453105
0.000222524
0.00024524429
0.00027183788
0.0003015342
0.00033378695
0.00036842152
0.00040587508
0.0004477849
0.00049848718
0.00051978557
0.00018621932
0.00019212968
0.00020458427
0.00022259266
0.00024532695
0.00027192989
0.000301629
0.0003338775
0.00036850149
0.00040593961
0.0004478309
0.00049851305
0.00051979211
0.00018625811
0.00019217477
0.0002046413
0.00022266371
0.00024541049
0.00027202135
0.00030172212
0.00033396565
0.00036857882
0.00040600169
0.00044787503
0.00049853781
0.00051979917
0.00018630159
0.00019222403
0.00020470147
0.00022273654
0.00024549433
0.00027211178
0.00030181316
0.00033405111
0.00036865327
0.00040606114
0.00044791706
0.00049856132
0.00051980662
0.00018634906
0.00019227678
0.00020476411
0.00022281054
0.00024557794
0.00027220071
0.00030190175
0.00033413355
0.00036872459
0.00040611775
0.00044795681
0.00049858354
0.00051981433
0.00018639984
0.00019233236
0.00020482861
0.00022288511
0.00024566079
0.00027228771
0.00030198752
0.00033421271
0.00036879257
0.0004061713
0.00044799412
0.00049860445
0.00051982221
0.00018645329
0.00019239014
0.00020489437
0.00022295974
0.00024574243
0.00027237237
0.00030207017
0.00033428834
0.00036885703
0.00040622165
0.00044802896
0.00049862404
0.00051983016
0.00018650882
0.00019244954
0.00020496085
0.00022303392
0.00024582243
0.00027245438
0.00030214945
0.00033436027
0.00036891781
0.0004062687
0.00044806135
0.0004986423
0.00051983813
0.00018656588
0.00019251003
0.00020502755
0.00022310725
0.00024590046
0.00027253346
0.00030222517
0.00033442837
0.00036897483
0.00040631248
0.00044809135
0.00049865928
0.00051984605
0.00018662398
0.00019257115
0.00020509407
0.00022317935
0.00024597623
0.00027260943
0.00030229723
0.00033449259
0.00036902809
0.00040635308
0.00044811901
0.000498675
0.00051985389
0.0001866827
0.0001926325
0.00020516003
0.00022324994
0.00024604954
0.00027268217
0.00030236555
0.00033455288
0.00036907769
0.00040639062
0.00044814448
0.00049868955
0.00051986165
0.00018674167
0.00019269372
0.00020522515
0.0002233188
0.00024612023
0.00027275159
0.00030243011
0.00033460933
0.00036912376
0.00040642525
0.00044816788
0.00049870302
0.00051986931
0.00018680059
0.00019275452
0.00020528918
0.00022338574
0.00024618821
0.00027281764
0.00030249094
0.00033466207
0.00036916646
0.00040645714
0.00044818937
0.00049871552
0.00051987688
0.00018685916
0.00019281466
0.00020535192
0.00022345062
0.00024625338
0.0002728803
0.00030254811
0.00033471122
0.00036920597
0.00040648647
0.00044820908
0.00049872711
0.00051988436
0.00018691714
0.00019287391
0.00020541318
0.00022351331
0.00024631566
0.00027293959
0.0003026017
0.00033475692
0.00036924242
0.00040651337
0.00044822714
0.00049873789
0.00051989174
0.00018697431
0.00019293205
0.00020547279
0.00022357367
0.00024637501
0.00027299553
0.00030265181
0.00033479928
0.00036927596
0.00040653798
0.00044824365
0.00049874789
0.000519899
0.00018703043
0.00019298887
0.00020553056
0.0002236316
0.00024643138
0.00027304813
0.0003026985
0.00033483841
0.0003693067
0.00040656039
0.00044825867
0.00049875713
0.00051990612
0.00018708527
0.00019304418
0.00020558635
0.00022368699
0.00024648473
0.00027309741
0.00030274181
0.00033487437
0.0003693347
0.00040658066
0.00044827223
0.00049876561
0.00051991305
0.00018713862
0.00019309776
0.00020563998
0.00022373973
0.000246535
0.00027314337
0.00030278179
0.00033490723
0.00036936003
0.00040659884
0.00044828435
0.00049877332
0.00051991976
0.00018719027
0.00019314944
0.00020569132
0.00022378973
0.00024658215
0.000273186
0.00030281845
0.00033493702
0.00036938272
0.00040661495
0.00044829503
0.00049878023
0.0005199262
0.00018724002
0.00019319904
0.00020574023
0.0002238369
0.00024662615
0.00027322531
0.00030285184
0.00033496379
0.00036940283
0.00040662901
0.00044830428
0.00049878632
0.00051993233
0.00018728771
0.00019324641
0.0002057866
0.00022388118
0.00024666697
0.00027326133
0.00030288201
0.0003349876
0.00036942041
0.00040664109
0.0004483121
0.00049879157
0.00051993812
0.00018733322
0.00019329144
0.00020583034
0.00022392253
0.00024670463
0.0002732941
0.00030290904
0.00033500855
0.00036943554
0.00040665122
0.00044831855
0.000498796
0.00051994354
0.00018737644
0.00019333405
0.00020587143
0.00022396096
0.00024673918
0.0002733237
0.00030293302
0.00033502674
0.00036944834
0.00040665953
0.0004483237
0.00049879965
0.00051994859
0.00018741733
0.00019337421
0.00020590985
0.00022399649
0.00024677069
0.00027335026
0.0003029541
0.00033504234
0.00036945894
0.00040666613
0.00044832764
0.00049880259
0.00051995329
0.00018745586
0.00019341191