/*--------------------------------*- C++ -*----------------------------------*\
| =========                 |                                                 |
| \\      /  F ield         | OpenFOAM: The Open Source CFD Toolbox           |
|  \\    /   O peration     | Version:  2506                                  |
|   \\  /    A nd           | Website:  www.openfoam.com                      |
|    \\/     M anipulation  |                                                 |
\*---------------------------------------------------------------------------*/
FoamFile
{
    version     2.0;
    format      ascii;
    arch        "LSB;label=32;scalar=64";
    class       volScalarField;
    location    "13000/water";
    object      nut;
}
// * * * * * * * * * * * * * * * * * * * * * * * * * * * * * * * * * * * * * //

dimensions      [0 2 -1 0 0 0 0];

internalField   nonuniform List<scalar> 
2600
(
4.0562043e-05
4.0561942e-05
4.0561944e-05
4.0561981e-05
4.0561942e-05
4.0561434e-05
4.0558261e-05
4.0540002e-05
4.0435343e-05
3.98338e-05
3.6541397e-05
2.4161555e-05
1.4889524e-05
3.944741e-05
3.9447468e-05
3.944759e-05
3.9447676e-05
3.9447275e-05
3.9444342e-05
3.9428907e-05
3.9352895e-05
3.8988431e-05
3.7314814e-05
3.0763187e-05
1.7536144e-05
1.684056e-05
3.852265e-05
3.852264e-05
3.8522725e-05
3.8522528e-05
3.8520597e-05
3.8510798e-05
3.8466747e-05
3.8277827e-05
3.7500368e-05
3.454641e-05
2.5814945e-05
1.4669956e-05
1.7712619e-05
3.7742032e-05
3.774193e-05
3.7741811e-05
3.7740766e-05
3.7735283e-05
3.7711707e-05
3.7617453e-05
3.7258039e-05
3.5961308e-05
3.177518e-05
2.2061889e-05
1.3531464e-05
1.7967898e-05
3.7073562e-05
3.7073366e-05
3.7072781e-05
3.7069955e-05
3.7057916e-05
3.7011651e-05
3.6843992e-05
3.6266509e-05
3.4405655e-05
2.9188861e-05
1.9425178e-05
1.3345943e-05
1.7902414e-05
3.6493786e-05
3.6493393e-05
3.6491924e-05
3.648598e-05
3.646354e-05
3.6384687e-05
3.612226e-05
3.5294625e-05
3.2873382e-05
2.6881541e-05
1.771645e-05
1.3793839e-05
1.7689846e-05
3.5985207e-05
3.5984445e-05
3.5981496e-05
3.5970726e-05
3.5933497e-05
3.5812307e-05
3.5437992e-05
3.4343601e-05
3.1395257e-05
2.4892541e-05
1.6781972e-05
1.4727875e-05
1.7427344e-05
3.5534568e-05
3.55332e-05
3.5528007e-05
3.5510417e-05
3.5453869e-05
3.5281761e-05
3.478374e-05
3.3418009e-05
2.9989903e-05
2.3242727e-05
1.6521213e-05
1.605365e-05
1.7168093e-05
3.5131649e-05
3.5129373e-05
3.5121029e-05
3.5094485e-05
3.5014364e-05
3.4784646e-05
3.4156253e-05
3.2521766e-05
2.8667649e-05
2.1957692e-05
1.6869959e-05
1.7676047e-05
1.694009e-05
3.4768438e-05
3.47649e-05
3.4752406e-05
3.4714802e-05
3.4607522e-05
3.4315777e-05
3.3554458e-05
3.16563e-05
2.7438403e-05
2.1076946e-05
1.7774701e-05
1.9481897e-05
1.6755877e-05
3.4438571e-05
3.443338e-05
3.4415717e-05
3.4365168e-05
3.4228127e-05
3.3872266e-05
3.2977968e-05
3.0820513e-05
2.6321667e-05
2.064959e-05
1.9168673e-05
2.1348725e-05
1.6617712e-05
3.4136931e-05
3.4129689e-05
3.4105903e-05
3.4040932e-05
3.3872746e-05
3.3452766e-05
3.2426062e-05
3.0012536e-05
2.5355877e-05
2.0719809e-05
2.0958175e-05
2.3166793e-05
1.6521078e-05
3.3859367e-05
3.3849701e-05
3.3819003e-05
3.3738723e-05
3.3539365e-05
3.3056856e-05
3.1897087e-05
2.923354e-05
2.4602257e-05
2.1309035e-05
2.3024752e-05
2.4858007e-05
1.6457822e-05
3.3602495e-05
3.3590098e-05
3.355197e-05
3.3456247e-05
3.3227088e-05
3.2684517e-05
3.1388405e-05
2.8493549e-05
2.4138757e-05
2.2402735e-05
2.5241354e-05
2.6381455e-05
1.6418929e-05
3.3363555e-05
3.334823e-05
3.3302533e-05
3.3192135e-05
3.2935885e-05
3.2335692e-05
3.0897111e-05
2.7818119e-05
2.4044358e-05
2.3946906e-05
2.7493335e-05
2.7726694e-05
1.6396422e-05
3.3140311e-05
3.3122024e-05
3.3069114e-05
3.2945826e-05
3.2666358e-05
3.2009929e-05
3.0421904e-05
2.725306e-05
2.4379894e-05
2.5855075e-05
2.9693858e-05
2.8902281e-05
1.6384202e-05
3.2930983e-05
3.2909915e-05
3.2850758e-05
3.2717477e-05
3.2419519e-05
3.1706209e-05
2.9966345e-05
2.6863467e-05
2.5173338e-05
2.8023002e-05
3.178848e-05
2.9925862e-05
1.6378087e-05
3.27342e-05
3.2710811e-05
3.2647097e-05
3.2507877e-05
3.219656e-05
3.14231e-05
2.9543334e-05
2.6725089e-05
2.6414165e-05
3.0346001e-05
3.3750499e-05
3.0817911e-05
1.6375449e-05
3.254898e-05
3.2524066e-05
3.2458325e-05
3.2318371e-05
3.1998619e-05
3.1159479e-05
2.9179673e-05
2.6909997e-05
2.805682e-05
3.2733297e-05
3.5572232e-05
3.159849e-05
1.6374764e-05
3.2374714e-05
3.234948e-05
3.2285189e-05
3.2150777e-05
3.1826588e-05
3.0916123e-05
2.8918575e-05
2.7471841e-05
3.0030665e-05
3.5115834e-05
3.7256818e-05
3.2285747e-05
1.6375224e-05
3.2211173e-05
3.2187303e-05
3.2128983e-05
3.2007273e-05
3.1681012e-05
3.0698309e-05
2.8817773e-05
2.8435851e-05
3.2252928e-05
3.7447133e-05
3.8812575e-05
3.2895331e-05
1.6376448e-05
3.2058522e-05
3.2038256e-05
3.199155e-05
3.1890271e-05
3.1562235e-05
3.0519241e-05
2.8942305e-05
2.9795901e-05
3.4641249e-05
3.9699498e-05
4.0249838e-05
3.3440303e-05
1.6378293e-05
3.1917349e-05
3.1903563e-05
3.1875268e-05
3.1802262e-05
3.147098e-05
3.0403414e-05
2.9353632e-05
3.1518041e-05
3.7123065e-05
4.1858566e-05
4.1579379e-05
3.3931333e-05
1.6380731e-05
3.1788707e-05
3.1784988e-05
3.1783034e-05
3.1745667e-05
3.1409597e-05
3.0388389e-05
3.0098641e-05
3.3548311e-05
3.9640503e-05
4.3918427e-05
4.2811639e-05
3.4377031e-05
1.638378e-05
3.167417e-05
3.1684884e-05
3.1718215e-05
3.1722747e-05
3.1384108e-05
3.0523333e-05
3.1201975e-05
3.5822342e-05
4.2151078e-05
4.5878174e-05
4.3956334e-05
3.4784314e-05
1.6387467e-05
3.1575896e-05
3.1606239e-05
3.1684577e-05
3.1735683e-05
3.1406919e-05
3.0863671e-05
3.2663378e-05
3.8274457e-05
4.4625623e-05
4.7739783e-05
4.5022274e-05
3.5158739e-05
1.6391813e-05
3.1496714e-05
3.155272e-05
3.1686171e-05
3.1786998e-05
3.1499547e-05
3.1462867e-05
3.445981e-05
4.0844581e-05
4.7045146e-05
4.9506882e-05
4.6017315e-05
3.5504794e-05
1.6396824e-05
3.1440215e-05
3.1528703e-05
3.1727217e-05
3.1880504e-05
3.169423e-05
3.2363743e-05
3.6550942e-05
4.3482184e-05
4.9397839e-05
5.1183995e-05
4.6948402e-05
3.5826124e-05
1.6402494e-05
3.141085e-05
3.1539289e-05
3.1812006e-05
3.2022927e-05
3.2033145e-05
3.3591894e-05
3.8886228e-05
4.6147426e-05
5.1676787e-05
5.2776063e-05
4.782164e-05
3.6125718e-05
1.6408802e-05
3.1414042e-05
3.1590274e-05
3.1944928e-05
3.222612e-05
3.2564563e-05
3.5152684e-05
4.1411886e-05
4.8810348e-05
5.3878384e-05
5.4288122e-05
4.8642393e-05
3.6406048e-05
1.6415722e-05
3.1456281e-05
3.1688095e-05
3.2130757e-05
3.2509432e-05
3.3336481e-05
3.7032009e-05
4.4076506e-05
5.1449131e-05
5.6001295e-05
5.5725114e-05
4.9415388e-05
3.6669254e-05
1.642322e-05
3.1545208e-05
3.183974e-05
3.2375386e-05
3.2901322e-05
3.4389412e-05
3.9199975e-05
4.6834633e-05
5.4048187e-05
5.8045689e-05
5.7091637e-05
5.0144339e-05
3.6914943e-05
1.6431248e-05
3.1689662e-05
3.2052668e-05
3.2687146e-05
3.3439135e-05
3.5750339e-05
4.1616209e-05
4.9648333e-05
5.6596558e-05
6.0012742e-05
5.8392011e-05
5.0832727e-05
3.7144922e-05
1.6439749e-05
3.1899684e-05
3.2334823e-05
3.3078704e-05
3.4166339e-05
3.7429301e-05
4.4235459e-05
5.2487192e-05
5.9086682e-05
6.1904244e-05
5.9630092e-05
5.1482696e-05
3.7361244e-05
1.6448668e-05
3.2186465e-05
3.2694872e-05
3.3569196e-05
3.512741e-05
3.9419065e-05
4.7012428e-05
5.5327449e-05
6.1513507e-05
6.3722343e-05
6.0809394e-05
5.2096451e-05
3.7565313e-05
1.6457958e-05
3.2562281e-05
3.3142861e-05
3.4185831e-05
3.636155e-05
4.1697458e-05
4.9905187e-05
5.8150806e-05
6.3873834e-05
6.5469391e-05
6.1933118e-05
5.26774e-05
3.7758158e-05
1.6467586e-05
3.3040474e-05
3.369144e-05
3.4963993e-05
3.7896946e-05
4.4231431e-05
5.2877047e-05
6.0943282e-05
6.6165777e-05
6.7147566e-05
6.3002905e-05
5.3228279e-05
3.7940824e-05
1.6477531e-05
3.3635637e-05
3.4357647e-05
3.5945064e-05
3.9746991e-05
4.698172e-05
5.5897117e-05
6.3694247e-05
6.8388429e-05
6.8759334e-05
6.4022595e-05
5.3751053e-05
3.8114079e-05
1.6487766e-05
3.4364222e-05
3.5164899e-05
3.7171975e-05
4.1909153e-05
4.9907175e-05
5.8940022e-05
6.6395662e-05
7.0541364e-05
7.0305656e-05
6.4995387e-05
5.4247639e-05
3.8278684e-05
1.6498266e-05
3.5245718e-05
3.6144411e-05
3.8683387e-05
4.4366358e-05
5.2968072e-05
6.1985165e-05
6.9041445e-05
7.2624745e-05
7.1789406e-05
6.592387e-05
5.4719658e-05
3.8435268e-05
1.6509004e-05
3.6304387e-05
3.733501e-05
4.0508064e-05
4.7090191e-05
5.61282e-05
6.5015938e-05
7.1626948e-05
7.4638163e-05
7.3213262e-05
6.6810355e-05
5.5168628e-05
3.8584368e-05
1.6519954e-05
3.757104e-05
3.8780588e-05
4.2660827e-05
5.0044936e-05
5.9355771e-05
6.8018891e-05
7.4148643e-05
7.6582484e-05
7.4579714e-05
6.7656897e-05
5.5595889e-05
3.8726449e-05
1.653109e-05
3.9083845e-05
4.0525206e-05
4.5140963e-05
5.3191569e-05
6.2623561e-05
7.0983096e-05
7.6603203e-05
7.8458831e-05
7.5890903e-05
6.8465401e-05
5.6002629e-05
3.8861903e-05
1.6542386e-05
4.0886892e-05
4.2606843e-05
4.793308e-05
5.6490974e-05
6.5908435e-05
7.3899518e-05
7.8988637e-05
8.0268729e-05
7.7148729e-05
6.9237562e-05
5.6389884e-05
3.8991064e-05
1.6553815e-05
4.3025749e-05
4.5051402e-05
5.100986e-05
5.99062e-05
6.9190856e-05
7.6760128e-05
8.1303254e-05
8.2013411e-05
7.8354958e-05
6.9974892e-05
5.6758557e-05
3.9114209e-05
1.6565353e-05
4.5540329e-05
4.7868437e-05
5.4335734e-05
6.3403502e-05
7.2453896e-05
7.9558402e-05
8.3546718e-05
8.3693969e-05
7.9511133e-05
7.0678708e-05
5.7109423e-05
3.9231565e-05
1.6576974e-05
4.845669e-05
5.104943e-05
5.787061e-05
6.6952741e-05
7.5682773e-05
8.2288854e-05
8.5718418e-05
8.5311361e-05
8.0618593e-05
7.1350135e-05
5.744313e-05
3.9343313e-05
1.6588653e-05
5.1780098e-05
5.4568612e-05
6.1572926e-05
7.0526858e-05
7.8863935e-05
8.4947808e-05
8.7817759e-05
8.6866344e-05
8.1678447e-05
7.1990112e-05
5.7760215e-05
3.9449593e-05
1.6600366e-05
5.5491346e-05
5.8385622e-05
6.5401383e-05
7.4100916e-05
8.1987178e-05
8.7531658e-05
8.9844039e-05
8.8359438e-05
8.269157e-05
7.2599393e-05
5.8061096e-05
3.9550499e-05
1.6612086e-05
5.9547214e-05
6.2448902e-05
6.9315562e-05
7.7653778e-05
8.5043646e-05
9.0036942e-05
9.1796375e-05
8.9790903e-05
8.3658587e-05
7.3178541e-05
5.8346084e-05
3.9646086e-05
1.662379e-05
6.3884469e-05
6.6699785e-05
7.32782e-05
8.1167576e-05
8.802518e-05
9.2460233e-05
9.367366e-05
9.1160709e-05
8.4579868e-05
7.3727935e-05
5.861538e-05
3.9736371e-05
1.6635451e-05
6.8427345e-05
7.107708e-05
7.7255187e-05
8.4626044e-05
9.092415e-05
9.4798071e-05
9.5474528e-05
9.2468536e-05
8.5455527e-05
7.4247767e-05
5.8869078e-05
3.9821329e-05
1.664704e-05
7.3095551e-05
7.5520292e-05
8.1214725e-05
8.8014209e-05
9.3733345e-05
9.7046934e-05
9.7197366e-05
9.3713771e-05
8.6285424e-05
7.4738045e-05
5.9107166e-05
3.9900896e-05
1.6658531e-05
7.7811299e-05
7.9972325e-05
8.5127277e-05
9.1318199e-05
9.644593e-05
9.9203273e-05
9.8840344e-05
9.489554e-05
8.7069188e-05
7.5198609e-05
5.9329534e-05
3.9974973e-05
1.6669891e-05
8.2504381e-05
8.4381482e-05
8.896568e-05
9.4525148e-05
9.9055456e-05
0.00010126357
0.00010040148
9.6012756e-05
8.7806242e-05
7.5629142e-05
5.9535982e-05
4.0043428e-05
1.6681088e-05
8.7115042e-05
8.8702764e-05
9.2705364e-05
9.762322e-05
0.00010155592
0.00010322443
0.00010187874
9.7064186e-05
8.8495852e-05
7.6029202e-05
5.9726234e-05
4.0106099e-05
1.6692087e-05
9.1594987e-05
9.2898505e-05
9.6324639e-05
0.0001006017
0.00010394187
0.00010508273
0.00010327014
9.8048543e-05
8.9137187e-05
7.6398259e-05
5.9899956e-05
4.0162806e-05
1.6702851e-05
9.5907033e-05
9.6938448e-05
9.9804941e-05
0.00010345113
0.00010620851
0.00010683569
0.00010457387
9.8964586e-05
8.9729395e-05
7.673574e-05
6.0056788e-05
4.0213357e-05
1.671334e-05
0.00010002399
0.00010079938
0.00010313099
0.00010616347
0.00010835181
0.00010848106
0.00010578844
9.9811226e-05
9.027168e-05
7.7041085e-05
6.0196366e-05
4.0257565e-05
1.6723514e-05
0.00010392719
0.00010446446
0.0001062908
0.0001087322
0.0001103686
0.00011001716
0.00010691274
0.00010058763
9.0763387e-05
7.7313805e-05
6.0318364e-05
4.0295257e-05
1.6733331e-05
0.00010760496
0.00010792246
0.00010927562
0.0001111524
0.00011225669
0.000111443
0.0001079462
0.00010129331
9.1204082e-05
7.7553537e-05
6.0422522e-05
4.0326295e-05
1.674275e-05
0.00011105127
0.00011116683
0.00011207967
0.00011342078
0.00011401485
0.00011275833
0.00010888878
0.0001019282
9.1593618e-05
7.77601e-05
6.0508686e-05
4.0350586e-05
1.6751732e-05
0.00011426443
0.00011419496
0.00011469989
0.00011553564
0.00011564286
0.00011396364
0.00010974108
0.00010249271
9.1932189e-05
7.793354e-05
6.0576833e-05
4.0368097e-05
1.6760239e-05
0.00011724615
0.00011700735
0.00011713563
0.00011749676
0.00011714147
0.00011506016
0.00011050428
0.00010298775
9.2220363e-05
7.8074161e-05
6.0627095e-05
4.0378865e-05
1.6768237e-05
0.00012000071
0.00011960701
0.00011938825
0.00011930531
0.00011851237
0.00011604986
0.0001111802
0.00010341471
9.2459104e-05
7.8182545e-05
6.0659778e-05
4.0383003e-05
1.6775699e-05
0.0001225343
0.00012199889
0.00012146084
0.0001209637
0.0001197581
0.00011693534
0.00011177119
0.00010377548
9.2649765e-05
7.8259561e-05
6.0675361e-05
4.0380706e-05
1.6782601e-05
0.00012485448
0.00012418938
0.0001233579
0.00012247539
0.00012088195
0.00011771982
0.00011228014
0.00010407241
9.2794069e-05
7.8306354e-05
6.0674504e-05
4.0372246e-05
1.6788927e-05
0.00012696983
0.00012618601
0.00012508502
0.00012384476
0.00012188787
0.00011840703
0.00011271038
0.00010430824
9.289408e-05
7.8324328e-05
6.0658027e-05
4.0357967e-05
1.6794666e-05
0.00012888962
0.00012799706
0.00012664866
0.00012507692
0.00012278038
0.00011900112
0.00011306561
0.00010448604
9.2952156e-05
7.8315116e-05
6.0626901e-05
4.0338281e-05
1.6799815e-05
0.00013062354
0.00012963134
0.00012805594
0.00012617757
0.00012356446
0.00011950662
0.00011334985
0.00010460919
9.2970906e-05
7.8280547e-05
6.0582223e-05
4.0313654e-05
1.6804378e-05
0.00013218155
0.00013109804
0.00012931443
0.00012715286
0.00012424541
0.00011992833
0.00011356734
0.00010468125
9.2953127e-05
7.8222606e-05
6.0525189e-05
4.0284593e-05
1.6808364e-05
0.00013357368
0.00013240649
0.00013043199
0.00012800926
0.00012482882
0.00012027121
0.00011372251
0.00010470595
9.2901762e-05
7.814339e-05
6.0457069e-05
4.0251636e-05
1.6811789e-05
0.00013480995
0.00013356608
0.00013141667
0.00012875345
0.00012532043
0.00012054039
0.00011381984
0.00010468712
9.2819835e-05
7.8045068e-05
6.0379179e-05
4.0215335e-05
1.6814674e-05
0.00013590027
0.00013458616
0.00013227656
0.00012939224
0.00012572609
0.00012074102
0.00011386391
0.00010462861
9.2710414e-05
7.7929844e-05
6.029285e-05
4.0176247e-05
1.6817042e-05
0.00013685436
0.00013547592
0.00013301975
0.00012993244
0.00012605166
0.00012087828
0.00011385923
0.00010453427
9.2576559e-05
7.7799917e-05
6.0199412e-05
4.0134921e-05
1.6818922e-05
0.00013768168
0.00013624437
0.00013365418
0.00013038084
0.00012630298
0.00012095727
0.00011381028
0.00010440789
9.2421283e-05
7.7657452e-05
6.0100163e-05
4.0091889e-05
1.6820345e-05
0.00013839143
0.00013690028
0.00013418767
0.00013074413
0.00012648579
0.00012098301
0.00011372144
0.00010425316
9.2247524e-05
7.750455e-05
5.9996358e-05
4.0047656e-05
1.6821343e-05
0.00013899244
0.0001374521
0.00013462781
0.00013102885
0.00012660572
0.00012096041
0.00011359696
0.00010407367
9.205811e-05
7.7343226e-05
5.9889187e-05
4.0002698e-05
1.6821951e-05
0.00013949324
0.00013790799
0.00013498193
0.00013124134
0.00012666824
0.0001208942
0.00011344093
0.00010387284
9.1855743e-05
7.7175391e-05
5.9779768e-05
3.9957449e-05
1.6822202e-05
0.00013990195
0.00013827576
0.00013525711
0.00013138775
0.00012667862
0.00012078895
0.00011325726
0.00010365394
9.1642976e-05
7.7002836e-05
5.9669138e-05
3.9912309e-05
1.682213e-05
0.00014022634
0.00013856288
0.00013546012
0.00013147398
0.00012664193
0.00012064901
0.00011304969
0.00010342004
9.1422204e-05
7.6827223e-05
5.9558243e-05
3.9867631e-05
1.6821769e-05
0.00014047379
0.00013877642
0.00013559742
0.00013150566
0.00012656302
0.00012047854
0.00011282174
0.00010317406
9.1195653e-05
7.6650082e-05
5.9447939e-05
3.982373e-05
1.6821151e-05
0.00014065127
0.00013892314
0.00013567515
0.00013148817
0.00012644651
0.00012028148
0.00011257672
0.00010291867
9.0965378e-05
7.6472802e-05
5.9338988e-05
3.9780875e-05
1.6820309e-05
0.00014076539
0.00013900938
0.00013569915
0.00013142662
0.00012629677
0.00012006154
0.00011231773
0.00010265639
9.0733257e-05
7.6296633e-05
5.9232063e-05
3.9739298e-05
1.6819271e-05
0.00014082237
0.00013904115
0.00013567489
0.00013132583
0.00012611792
0.0001198222
0.00011204768
0.00010238952
9.0500996e-05
7.6122689e-05
5.9127744e-05
3.9699189e-05
1.6818066e-05
0.00014082805
0.0001390241
0.00013560757
0.00013119034
0.00012591385
0.00011956673
0.00011176922
0.00010212016
9.0270125e-05
7.5951936e-05
5.9026481e-05
3.966049e-05
1.6816718e-05
0.00014078791
0.0001389635
0.00013550205
0.00013102443
0.0001256882
0.00011929816
0.00011148483
0.00010185022
9.0041999e-05
7.5785199e-05
5.8928629e-05
3.9623152e-05
1.6815251e-05
0.00014070709
0.00013886433
0.00013536288
0.0001308321
0.00012544437
0.0001190193
0.00011119677
0.00010158141
8.9817792e-05
7.5623117e-05
5.8834212e-05
3.9587466e-05
1.6813681e-05
0.00014059036
0.00013873119
0.00013519431
0.00013061708
0.00012518552
0.00011873275
0.00011090707
0.00010131526
8.9598532e-05
7.5466273e-05
5.874357e-05
3.9553559e-05
1.681203e-05
0.00014044217
0.00013856841
0.00013500031
0.00013038285
0.00012491457
0.00011844089
0.0001106176
0.0001010531
8.9385012e-05
7.5314792e-05
5.8657139e-05
3.9521521e-05
1.6810318e-05
0.00014026668
0.00013837997
0.00013478457
0.00013013264
0.00012463423
0.00011814588
0.00011033
0.00010079607
8.9177864e-05
7.5169369e-05
5.8575066e-05
3.9491405e-05
1.6808563e-05
0.00014006771
0.00013816959
0.00013455049
0.00012986942
0.00012434697
0.00011784969
0.00011004574
0.00010054515
8.8977632e-05
7.5030467e-05
5.8497476e-05
3.9463243e-05
1.6806783e-05
0.00013984881
0.0001379407
0.00013430123
0.00012959593
0.00012405507
0.00011755409
0.00010976605
0.00010030099
8.8785116e-05
7.4898331e-05
5.8424449e-05
3.9437045e-05
1.6804994e-05
0.00013961326
0.00013769645
0.00013403968
0.0001293147
0.00012376057
0.00011726062
0.00010949197
0.00010006454
8.8600779e-05
7.4773136e-05
5.8356021e-05
3.9412801e-05
1.6803207e-05
0.00013936407
0.00013743977
0.00013376852
0.00012902801
0.0001234653
0.00011697063
0.00010922449
9.9836596e-05
8.8424965e-05
7.4654996e-05
5.8292187e-05
3.9390485e-05
1.6801436e-05
0.00013910399
0.0001371733
0.00013349017
0.00012873794
0.0001231709
0.00011668528
0.0001089647
9.9617694e-05
8.8257925e-05
7.4543966e-05
5.823291e-05
3.9370054e-05
1.6799691e-05
0.00013883555
0.00013689949
0.00013320683
0.00012844631
0.00012287875
0.0001164059
0.00010871338
9.9408277e-05
8.8099831e-05
7.4440046e-05
5.8178124e-05
3.9351456e-05
1.679798e-05
0.00013856104
0.0001366205
0.00013292042
0.00012815475
0.00012259039
0.00011613353
0.00010847121
9.9208682e-05
8.7950778e-05
7.4343191e-05
5.8127736e-05
3.9334629e-05
1.6796311e-05
0.00013828248
0.00013633827
0.00013263276
0.00012786494
0.0001223071
0.00011586909
0.00010823872
9.9019152e-05
8.7810798e-05
7.4253312e-05
5.8081632e-05
3.9319505e-05
1.6794689e-05
0.00013800174
0.00013605465
0.00013234558
0.00012757835
0.00012203001
0.00011561333
0.00010801635
9.8839847e-05
8.7679859e-05
7.4170285e-05
5.8039681e-05
3.930601e-05
1.6793122e-05
0.00013772055
0.00013577132
0.00013206041
0.00012729628
0.0001217601
0.00011536691
0.00010780442
9.8670847e-05
8.7557879e-05
7.4093951e-05
5.8001736e-05
3.9294067e-05
1.6791612e-05
0.00013744047
0.00013548979
0.00013177866
0.00012701987
0.00012149822
0.00011513034
0.00010760318
9.8512161e-05
8.7444722e-05
7.4024124e-05
5.7967638e-05
3.9283596e-05
1.6790163e-05
0.00013716292
0.00013521145
0.00013150153
0.00012675012
0.00012124508
0.00011490403
0.00010741276
9.8363731e-05
8.7340208e-05
7.3960589e-05
5.7937214e-05
3.9274513e-05
1.6788779e-05
0.00013688919
0.0001349375
0.00013123013
0.0001264879
0.00012100126
0.0001146883
0.00010723323
9.8225437e-05
8.724412e-05
7.390311e-05
5.7910284e-05
3.9266733e-05
1.678746e-05
0.00013662039
0.00013466904
0.0001309654
0.00012623394
0.00012076726
0.00011448337
0.00010706458
9.809711e-05
8.7156203e-05
7.3851434e-05
5.7886661e-05
3.926017e-05
1.6786209e-05
0.00013635753
0.000134407
0.00013070815
0.00012598888
0.00012054344
0.00011428937
0.00010690675
9.7978536e-05
8.7076181e-05
7.3805297e-05
5.7866155e-05
3.925474e-05
1.6785025e-05
0.00013610148
0.00013415222
0.0001304591
0.00012575322
0.00012033011
0.00011410636
0.0001067596
9.7869465e-05
8.7003755e-05
7.3764427e-05
5.7848577e-05
3.9250358e-05
1.6783909e-05
0.00013585301
0.0001339054
0.00013021885
0.00012552739
0.00012012747
0.00011393435
0.00010662296
9.776962e-05
8.6938616e-05
7.372855e-05
5.7833743e-05
3.9246945e-05
1.6782861e-05
0.00013561277
0.00013366716
0.0001299879
0.00012531174
0.00011993567
0.00011377328
0.00010649663
9.7678706e-05
8.6880448e-05
7.3697398e-05
5.7821473e-05
3.9244425e-05
1.6781879e-05
0.00013538132
0.00013343802
0.00012976666
0.00012510651
0.00011975477
0.00011362306
0.00010638037
9.7596409e-05
8.6828932e-05
7.3670704e-05
5.7811595e-05
3.9242729e-05
1.6780963e-05
0.00013515913
0.0001332184
0.00012955547
0.0001249119
0.00011958479
0.00011348352
0.00010627392
9.7522402e-05
8.6783745e-05
7.3648206e-05
5.7803943e-05
3.9241789e-05
1.6780112e-05
0.00013494657
0.00013300865
0.00012935458
0.00012472803
0.00011942568
0.00011335449
0.00010617698
9.7456342e-05
8.6744558e-05
7.3629642e-05
5.7798354e-05
3.9241543e-05
1.6779325e-05
0.00013474393
0.00013280901
0.00012916415
0.00012455492
0.00011927735
0.00011323572
0.00010608921
9.7397867e-05
8.6711037e-05
7.3614752e-05
5.7794668e-05
3.9241927e-05
1.6778601e-05
0.00013455142
0.00013261966
0.00012898428
0.00012439255
0.00011913963
0.00011312693
0.00010601026
9.73466e-05
8.6682837e-05
7.360327e-05
5.7792724e-05
3.9242881e-05
1.6777938e-05
0.00013436914
0.00013244068
0.00012881499
0.00012424083
0.00011901229
0.00011302781
0.00010593975
9.7302144e-05
8.6659606e-05
7.359493e-05
5.779236e-05
3.924434e-05
1.6777334e-05
0.00013419715
0.00013227209
0.00012865621
0.0001240996
0.00011889508
0.00011293798
0.00010587727
9.7264091e-05
8.6640987e-05
7.3589464e-05
5.7793416e-05
3.9246243e-05
1.6776786e-05
0.00013403543
0.00013211384
0.00012850784
0.00012396866
0.00011878769
0.00011285707
0.00010582238
9.7232028e-05
8.6626625e-05
7.3586608e-05
5.7795733e-05
3.9248528e-05
1.6776293e-05
0.0001338839
0.00013196583
0.00012836971
0.00012384776
0.00011868978
0.00011278468
0.00010577468
9.7205548e-05
8.6616175e-05
7.3586109e-05
5.7799163e-05
3.9251136e-05
1.677585e-05
0.00013374243
0.00013182792
0.00012824164
0.00012373663
0.00011860101
0.00011272039
0.00010573372
9.7184256e-05
8.6609308e-05
7.3587732e-05
5.7803571e-05
3.9254017e-05
1.6775456e-05
0.00013361088
0.00013169993
0.00012812339
0.00012363498
0.00011852102
0.00011266382
0.00010569911
9.7167781e-05
8.6605721e-05
7.3591264e-05
5.7808835e-05
3.9257126e-05
1.6775107e-05
0.00013348908
0.00013158168
0.00012801473
0.00012354252
0.00011844946
0.00011261458
0.00010567047
9.7155775e-05
8.6605136e-05
7.3596514e-05
5.7814852e-05
3.9260428e-05
1.6774801e-05
0.00013337683
0.00013147294
0.00012791542
0.00012345894
0.00011838597
0.00011257228
0.00010564742
9.7147914e-05
8.6607299e-05
7.360331e-05
5.7821532e-05
3.9263893e-05
1.6774536e-05
0.00013327391
0.00013137349
0.00012782517
0.00012338393
0.00011833021
0.00011253657
0.00010562961
9.7143892e-05
8.6611973e-05
7.3611497e-05
5.7828795e-05
3.9267496e-05
1.677431e-05
0.00013318009
0.00013128307
0.00012774372
0.00012331717
0.00011828183
0.00011250708
0.0001056167
9.7143409e-05
8.6618929e-05
7.3620925e-05
5.7836564e-05
3.9271217e-05
1.6774122e-05
0.00013309509
0.0001312014
0.00012767073
0.0001232583
0.00011824043
0.00011248342
0.00010560832
9.7146164e-05
8.6627937e-05
7.3631442e-05
5.7844763e-05
3.927503e-05
1.6773969e-05
0.00013301861
0.00013112815
0.00012760588
0.00012320695
0.00011820563
0.0001124652
0.00010560413
9.715185e-05
8.6638763e-05
7.3642895e-05
5.7853308e-05
3.9278909e-05
1.677385e-05
0.00013295028
0.00013106296
0.00012754876
0.00012316271
0.00011817702
0.00011245202
0.00010560374
9.716015e-05
8.6651163e-05
7.3655119e-05
5.7862113e-05
3.9282823e-05
1.6773763e-05
0.00013288973
0.00013100545
0.00012749898
0.00012312515
0.00011815414
0.00011244345
0.00010560677
9.7170741e-05
8.6664891e-05
7.3667949e-05
5.7871084e-05
3.9286736e-05
1.6773704e-05
0.00013283654
0.00013095518
0.00012745609
0.00012309383
0.00011813656
0.00011243907
0.00010561284
9.7183306e-05
8.6679705e-05
7.3681222e-05
5.7880132e-05
3.9290615e-05
1.6773671e-05
0.00013279029
0.00013091174
0.00012741966
0.0001230683
0.00011812384
0.00011243845
0.00010562158
9.719754e-05
8.6695377e-05
7.3694786e-05
5.7889173e-05
3.9294428e-05
1.6773661e-05
0.00013275054
0.00013087467
0.00012738925
0.00012304812
0.00011811554
0.00011244121
0.00010563264
9.721317e-05
8.6711706e-05
7.3708512e-05
5.7898139e-05
3.929815e-05
1.677367e-05
0.0001327169
0.00013084359
0.00012736444
0.00012303287
0.00011811127
0.000112447
0.00010564574
9.7229957e-05
8.672852e-05
7.3722295e-05
5.7906978e-05
3.9301762e-05
1.6773697e-05
0.00013268898
0.00013081809
0.00012734484
0.00012302218
0.00011811069
0.00011245549
0.0001056606
9.7247702e-05
8.6745688e-05
7.373606e-05
5.7915658e-05
3.9305258e-05
1.6773739e-05
0.00013266642
0.00013079783
0.00012733011
0.00012301572
0.00011811348
0.00011246641
0.000105677
9.7266245e-05
8.6763105e-05
7.3749753e-05
5.7924163e-05
3.9308638e-05
1.6773795e-05
0.00013264892
0.00013078248
0.00012731993
0.00012301316
0.00011811936
0.00011247953
0.00010569476
9.7285452e-05
8.6780693e-05
7.376334e-05
5.7932485e-05
3.9311907e-05
1.6773863e-05
0.00013263616
0.00013077174
0.00012731398
0.00012301423
0.00011812806
0.00011249463
0.00010571371
9.7305208e-05
8.6798387e-05
7.3776796e-05
5.7940626e-05
3.9315071e-05
1.6773944e-05
0.00013262785
0.0001307653
0.00012731198
0.00012301865
0.00011813934
0.00011251149
0.00010573369
9.7325402e-05
8.681612e-05
7.3790091e-05
5.794858e-05
3.9318136e-05
1.6774035e-05
0.00013262368
0.00013076288
0.00012731364
0.00012302614
0.00011815295
0.0001125299
0.00010575452
9.7345913e-05
8.6833817e-05
7.3803186e-05
5.795633e-05
3.9321079e-05
1.6774138e-05
0.00013262333
0.00013076414
0.00012731863
0.00012303639
0.00011816861
0.00011254964
0.00010577603
9.7366607e-05
8.6851389e-05
7.3816029e-05
5.7963849e-05
3.9323888e-05
1.6774249e-05
0.00013262646
0.00013076875
0.00012732664
0.0001230491
0.00011818604
0.00011257045
0.00010579801
9.7387333e-05
8.6868728e-05
7.3828549e-05
5.7971079e-05
3.9326566e-05
1.6774369e-05
0.00013263271
0.00013077635
0.00012733729
0.00012306392
0.00011820494
0.00011259208
0.00010582027
9.7407931e-05
8.6885721e-05
7.384067e-05
5.7977989e-05
3.9329103e-05
1.6774494e-05
0.00013264169
0.00013078656
0.00012735025
0.00012308054
0.00011822502
0.00011261428
0.00010584258
9.7428242e-05
8.6902251e-05
7.38523e-05
5.7984556e-05
3.933149e-05
1.6774623e-05
0.00013265304
0.00013079903
0.00012736515
0.00012309862
0.00011824598
0.0001126368
0.00010586477
9.744812e-05
8.6918217e-05
7.386339e-05
5.7990755e-05
3.9333718e-05
1.6774754e-05
0.0001326664
0.0001308134
0.00012738166
0.00012311786
0.00011826756
0.00011265943
0.00010588665
9.7467438e-05
8.6933517e-05
7.3873916e-05
5.7996569e-05
3.9335781e-05
1.6774886e-05
0.00013268145
0.00013082935
0.00012739949
0.00012313799
0.00011828953
0.00011268198
0.00010590809
9.7486101e-05
8.6948121e-05
7.3883853e-05
5.800199e-05
3.9337678e-05
1.6775017e-05
0.0001326979
0.00013084661
0.00012741837
0.00012315878
0.00011831171
0.00011270431
0.00010592899
9.7504043e-05
8.6962014e-05
7.3893194e-05
5.8007019e-05
3.9339411e-05
1.6775146e-05
0.00013271555
0.00013086495
0.0001274381
0.00012318005
0.00011833395
0.00011272632
0.00010594928
9.752126e-05
8.6975194e-05
7.3901953e-05
5.8011672e-05
3.9340989e-05
1.6775273e-05
0.00013273419
0.00013088421
0.00012745852
0.00012320167
0.00011835615
0.00011274793
0.00010596894
9.7537753e-05
8.698768e-05
7.3910155e-05
5.8015973e-05
3.9342424e-05
1.6775396e-05
0.00013275369
0.00013090423
0.00012747949
0.00012322353
0.00011837823
0.00011276912
0.00010598797
9.7553538e-05
8.6999502e-05
7.3917836e-05
5.8019951e-05
3.934373e-05
1.6775517e-05
0.00013277393
0.00013092491
0.0001275009
0.00012324553
0.00011840013
0.00011278985
0.00010600638
9.7568639e-05
8.7010695e-05
7.3925032e-05
5.8023634e-05
3.9344923e-05
1.6775635e-05
0.00013279481
0.00013094612
0.00012752266
0.0001232676
0.0001184218
0.00011281011
0.00010602417
9.7583079e-05
8.7021292e-05
7.3931777e-05
5.802705e-05
3.9346016e-05
1.6775751e-05
0.00013281619
0.00013096776
0.00012754466
0.00012328966
0.00011844321
0.00011282989
0.00010604133
9.7596871e-05
8.7031316e-05
7.3938096e-05
5.8030218e-05
3.9347021e-05
1.6775865e-05
0.00013283795
0.0001309897
0.00012756681
0.00012331163
0.00011846427
0.00011284912
0.00010605785
9.7610015e-05
8.7040779e-05
7.3944004e-05
5.8033151e-05
3.9347944e-05
1.6775977e-05
0.00013285993
0.0001310118
0.00012758896
0.0001233334
0.00011848492
0.00011286777
0.0001060737
9.7622496e-05
8.7049676e-05
7.3949505e-05
5.8035855e-05
3.9348789e-05
1.6776087e-05
0.00013288199
0.00013103391
0.00012761098
0.00012335485
0.00011850504
0.00011288575
0.00010608882
9.7634286e-05
8.7057995e-05
7.3954592e-05
5.8038327e-05
3.9349556e-05
1.6776195e-05
0.00013290392
0.00013105585
0.00012763271
0.00012337583
0.00011852454
0.00011290299
0.00010610317
9.764535e-05
8.7065712e-05
7.3959253e-05
5.8040559e-05
3.9350239e-05
1.6776299e-05
0.00013292556
0.00013107746
0.000127654
0.00012339623
0.00011854331
0.00011291941
0.00010611668
9.765565e-05
8.7072807e-05
7.3963474e-05
5.8042544e-05
3.9350836e-05
1.67764e-05
0.00013294674
0.00013109857
0.0001276747
0.00012341592
0.00011856125
0.00011293494
0.00010612931
9.7665159e-05
8.7079261e-05
7.3967245e-05
5.8044275e-05
3.9351341e-05
1.6776496e-05
0.00013296731
0.00013111903
0.00012769468
0.00012343478
0.00011857829
0.00011294953
0.00010614103
9.7673859e-05
8.7085069e-05
7.3970564e-05
5.804575e-05
3.9351753e-05
1.6776586e-05
0.00013298715
0.00013113876
0.00012771386
0.00012345276
0.00011859437
0.00011296314
0.00010615183
9.7681753e-05
8.7090238e-05
7.3973441e-05
5.8046977e-05
3.9352071e-05
1.677667e-05
0.0001330062
0.00013115765
0.00012773216
0.00012346981
0.00011860948
0.00011297578
0.00010616172
9.7688865e-05
8.7094795e-05
7.3975898e-05
5.8047969e-05
3.9352303e-05
1.6776748e-05
0.00013302441