/*--------------------------------*- C++ -*----------------------------------*\
| =========                 |                                                 |
| \\      /  F ield         | OpenFOAM: The Open Source CFD Toolbox           |
|  \\    /   O peration     | Version:  2506                                  |
|   \\  /    A nd           | Website:  www.openfoam.com                      |
|    \\/     M anipulation  |                                                 |
\*---------------------------------------------------------------------------*/
FoamFile
{
    version     2.0;
    format      ascii;
    arch        "LSB;label=32;scalar=64";
    class       volVectorField;
    location    "13000/water";
    object      U;
}
// * * * * * * * * * * * * * * * * * * * * * * * * * * * * * * * * * * * * * //

dimensions      [0 1 -1 0 0 0 0];

internalField   nonuniform List<vector> 
2600
(
(0.2509291 -6.6886033e-05 -6.0788729e-19)
(0.25093316 -0.00014739222 -3.851271e-18)
(0.25094167 -0.00023143146 -1.0285352e-18)
(0.2509543 -0.00031980044 -8.1492357e-19)
(0.25097092 -0.0004082391 7.1154101e-21)
(0.25099124 -0.00049673666 -1.7187661e-19)
(0.25101467 -0.0005856609 -5.0853985e-21)
(0.25103908 -0.00067482201 1.1023188e-19)
(0.25105541 -0.00075972197 -1.0162492e-20)
(0.25102652 -0.00083857781 -3.7081447e-20)
(0.25079811 -0.00098580402 8.2369118e-20)
(0.24954942 -0.001485464 -1.0008936e-19)
(0.2411817 0.0014904344 -6.4394574e-19)
(0.25290631 -5.2391824e-05 -1.7214537e-18)
(0.25291356 -0.00012867936 -4.0537637e-18)
(0.25292967 -0.00020232594 -1.1316059e-18)
(0.25295369 -0.00027812692 -9.8150107e-19)
(0.25298503 -0.00035187867 -3.6805468e-19)
(0.25302278 -0.00042368282 -3.972429e-19)
(0.25306456 -0.0004936843 -2.3141028e-20)
(0.25310219 -0.00056251339 1.0026386e-19)
(0.25310631 -0.00062550536 -7.5832379e-20)
(0.25297401 -0.00066089399 -2.1604863e-19)
(0.25231856 -0.00068576655 -5.7651974e-20)
(0.24919071 -0.0011507908 -3.0335349e-19)
(0.23317376 0.00055016191 -7.4670493e-19)
(0.25485703 -5.0201261e-05 -1.1899411e-18)
(0.25486389 -0.00012463928 -9.2211823e-19)
(0.2548791 -0.00019574884 -1.529857e-18)
(0.2549016 -0.00026956178 -8.0897494e-20)
(0.25493052 -0.00034177627 -5.4878125e-19)
(0.25496396 -0.00041257844 -1.6789318e-19)
(0.25499618 -0.00048173979 1.527042e-19)
(0.25500857 -0.00054996705 3.1588567e-19)
(0.25494172 -0.00061637669 1.9525362e-19)
(0.2546073 -0.0006602417 -1.2490707e-19)
(0.25332071 -0.00063871076 -1.7654405e-19)
(0.2478214 -0.00092597142 -4.8980384e-19)
(0.22526486 0.00012340436 -5.8587777e-19)
(0.25664521 -4.974385e-05 2.510614e-18)
(0.25665224 -0.00012488064 1.2889388e-18)
(0.2566674 -0.00019721364 -2.7972809e-19)
(0.2566896 -0.0002720698 2.7027107e-19)
(0.25671747 -0.00034495172 -2.5152832e-19)
(0.25674738 -0.00041609227 -2.2536301e-19)
(0.25676826 -0.0004848948 1.8203998e-20)
(0.25674667 -0.00055096518 2.1638651e-19)
(0.25658539 -0.00061444887 -4.6400721e-20)
(0.2559957 -0.0006636637 5.4477291e-20)
(0.2539403 -0.00063277351 -7.378119e-20)
(0.24583249 -0.00077044467 -4.3578611e-19)
(0.21800982 -5.9385922e-05 -4.5876898e-19)
(0.25841323 -4.8556775e-05 1.4311138e-18)
(0.2584204 -0.00012219546 1.2912439e-18)
(0.25843571 -0.00019301892 1.2299095e-18)
(0.25845781 -0.00026625064 -2.6599082e-19)
(0.25848442 -0.00033744492 6.480492e-20)
(0.25850914 -0.00040689654 -2.1374802e-19)
(0.25851346 -0.00047389151 -6.7661655e-20)
(0.25844542 -0.0005370587 -2.7106465e-19)
(0.25816424 -0.00059536593 -1.2478823e-19)
(0.25726648 -0.00064373127 -1.3908263e-19)
(0.25431322 -0.00061442321 -1.504483e-19)
(0.24352458 -0.00065114415 -2.5660227e-19)
(0.21163262 -0.00012321892 -4.1664639e-19)
(0.26015467 -4.7093439e-05 1.8503001e-18)
(0.26016187 -0.0001185153 6.0889869e-19)
(0.26017704 -0.0001870764 1.535116e-18)
(0.2601984 -0.00025799462 7.0382635e-19)
(0.26022227 -0.00032687702 1.3329728e-19)
(0.26023853 -0.00039398781 5.729415e-20)
(0.26021927 -0.00045855461 7.5741744e-20)
(0.26009115 -0.00051865148 -3.3452745e-19)
(0.25966515 -0.00057157394 -1.4362313e-19)
(0.2584067 -0.00061480871 -2.2156501e-19)
(0.25443266 -0.00058544056 -1.8333894e-19)
(0.24102793 -0.0005571206 -4.6146947e-20)
(0.20612335 -0.00013293671 -3.8492408e-19)
(0.26183846 -4.5390267e-05 1.2205437e-18)
(0.26184561 -0.00011435405 1.1997892e-18)
(0.26186042 -0.00018050108 9.8697418e-19)
(0.26188043 -0.00024892327 1.1371528e-18)
(0.26190007 -0.00031528561 1.8022097e-19)
(0.26190445 -0.00037977026 1.5136021e-21)
(0.26185458 -0.00044151446 9.203444e-21)
(0.2616533 -0.00049832849 -2.5836681e-20)
(0.26105826 -0.00054618084 -2.8838434e-19)
(0.25938354 -0.00058222647 -1.7924656e-19)
(0.25426994 -0.00054801504 -6.5816177e-20)
(0.23842933 -0.00047868139 -3.1195828e-20)
(0.20141646 -0.00011963306 -4.848286e-19)
(0.26345768 -4.3664882e-05 -2.2431901e-18)
(0.26346469 -0.00011008558 -8.3439177e-19)
(0.26347885 -0.00017377013 -5.1160393e-19)
(0.26349678 -0.00023963045 -5.8625234e-20)
(0.26351051 -0.00030340684 9.9191419e-20)
(0.26349932 -0.00036518044 7.5605298e-21)
(0.26341166 -0.00042394823 8.5399163e-20)
(0.2631242 -0.00047735794 1.4156456e-19)
(0.26233468 -0.00052050214 7.9388106e-20)
(0.26018092 -0.00054846095 -1.0152524e-19)
(0.25381559 -0.00050481858 1.0755924e-20)
(0.23581666 -0.00040978299 1.4245163e-19)
(0.19745226 -9.8494616e-05 -2.7079359e-19)
(0.26501552 -4.2046877e-05 2.4777844e-18)
(0.26502225 -0.00010599907 8.8129275e-19)
(0.26503542 -0.00016730209 1.1780913e-18)
(0.26505044 -0.00023067618 7.6458806e-19)
(0.26505633 -0.00029193976 1.8304925e-21)
(0.26502564 -0.00035106733 -7.5605855e-21)
(0.26489279 -0.00040688159 -1.2115505e-19)
(0.26450568 -0.00045685738 -1.3892438e-19)
(0.26349313 -0.00049549056 -1.6738562e-19)
(0.26078727 -0.00051473411 -2.3953968e-20)
(0.25307513 -0.00045847926 -8.7401219e-21)
(0.23327192 -0.00034737981 1.2875066e-19)
(0.19416843 -7.6932879e-05 -5.8399981e-20)
(0.2665165 -4.057706e-05 1.2234918e-18)
(0.26652283 -0.00010224007 1.3215717e-18)
(0.26653459 -0.00016134012 1.1955961e-18)
(0.26654572 -0.0002224043 1.0437657e-18)
(0.26654166 -0.00028132047 1.8570997e-19)
(0.26648729 -0.00033795568 2.7259858e-20)
(0.26630156 -0.0003909415 -1.7162057e-19)
(0.26580019 -0.00043752442 -8.9582204e-20)
(0.26453091 -0.00047164498 -1.0023175e-19)
(0.26118849 -0.00048140525 -4.3327579e-20)
(0.25206937 -0.00041120617 -2.0631798e-20)
(0.23086314 -0.00029047959 -1.6743769e-19)
(0.19149027 -5.8333256e-05 -2.7139012e-19)
(0.26796591 -3.9276697e-05 -1.7778153e-18)
(0.26797166 -9.8886215e-05 -2.9039492e-19)
(0.26798155 -0.00015601486 -2.4011612e-19)
(0.26798768 -0.00021499986 6.7816436e-19)
(0.26797137 -0.00027178437 3.4793406e-19)
(0.26788889 -0.00032612646 -8.7891732e-20)
(0.26764202 -0.00037645613 -1.2440414e-19)
(0.26700984 -0.00041972353 -9.9681212e-20)
(0.26544297 -0.00044912486 -1.9162744e-19)
(0.26137042 -0.00044842587 -7.3052871e-20)
(0.25083979 -0.00036475941 -6.3246026e-20)
(0.22864123 -0.00023936528 -4.5823254e-19)
(0.18933265 -4.3854024e-05 -2.1593157e-19)
(0.26936985 -3.8151201e-05 -8.0024851e-19)
(0.26937484 -9.5961771e-05 -5.3365012e-19)
(0.26938229 -0.00015136516 -6.0129912e-19)
(0.2693822 -0.00020851724 7.2070161e-20)
(0.26935114 -0.00026339986 1.0276299e-19)
(0.26923575 -0.00031565718 -2.7904764e-19)
(0.26891866 -0.00036350366 -2.5210557e-19)
(0.26813622 -0.00040351927 -1.3400981e-19)
(0.26622207 -0.00042777198 -1.8698159e-19)
(0.26132397 -0.00041560855 -4.8793554e-20)
(0.24944814 -0.00032041762 -2.2536571e-19)
(0.22663743 -0.00019477817 -4.7028353e-19)
(0.18760708 -3.3365972e-05 -2.7051897e-19)
(0.27073452 -3.7186892e-05 -1.0212311e-18)
(0.27073851 -9.3441593e-05 -5.9874769e-19)
(0.27074291 -0.00014735094 -7.6148962e-19)
(0.27073523 -0.00020290124 2.6661907e-23)
(0.27068668 -0.00025609589 -4.1393959e-20)
(0.27053315 -0.00030645578 -1.8359354e-19)
(0.27013553 -0.00035195662 -1.755485e-19)
(0.26917943 -0.00038871662 -5.0950977e-20)
(0.26685881 -0.00040716161 -1.9331425e-19)
(0.26105041 -0.00038281108 -1.702285e-19)
(0.24796793 -0.00027903903 -2.0142644e-19)
(0.2248628 -0.00015723519 -4.2674933e-19)
(0.18622942 -2.608962e-05 -2.8581159e-19)
(0.27206549 -3.6358597e-05 -4.3969275e-19)
(0.27206822 -9.1270024e-05 -4.2041255e-20)
(0.27206885 -0.0001438843 -2.6666709e-19)
(0.27205207 -0.00019803069 6.8325398e-19)
(0.27198302 -0.00024971698 -3.1507954e-19)
(0.27178551 -0.0002983267 1.411644e-19)
(0.27129541 -0.00034156266 3.1864315e-19)
(0.27013718 -0.00037494839 -1.4975013e-19)
(0.26734241 -0.00038673535 -1.9974966e-19)
(0.2605654 -0.00035005845 -1.1897969e-19)
(0.24647172 -0.00024119444 -7.7224068e-20)
(0.22331131 -0.00012666962 -3.232539e-19)
(0.18512583 -2.1076369e-05 -2.9451379e-19)
(0.27336737 -3.5638788e-05 1.0051555e-18)
(0.27336856 -8.938186e-05 -1.9142295e-19)
(0.27336463 -0.00014086217 1.0049874e-18)
(0.27333706 -0.00019376295 -2.9153078e-20)
(0.27324415 -0.00024407934 -6.2952742e-20)
(0.27299604 -0.00029103798 1.0934002e-19)
(0.27239931 -0.00033202382 2.8054711e-19)
(0.27100443 -0.00036176734 -2.3220569e-20)
(0.26766283 -0.00036596046 6.7842754e-20)
(0.25989992 -0.00031757793 -7.9632172e-20)
(0.24502002 -0.00020725745 -3.6652069e-19)
(0.22196569 -0.00010242448 -1.2120919e-20)
(0.18423545 -1.7507117e-05 -1.2112033e-19)
(0.27464382 -3.5002894e-05 8.4339213e-19)
(0.27464313 -8.7716017e-05 -1.6790526e-19)
(0.27463375 -0.00013818758 6.4094092e-19)
(0.2745935 -0.00018996324 1.3234042e-19)
(0.27447297 -0.00023900779 6.6005486e-19)
(0.27416661 -0.00028436529 2.2787606e-20)
(0.27344636 -0.00032304577 -1.8064001e-19)
(0.27177364 -0.00034871442 -4.2810438e-20)
(0.26781391 -0.00034445792 -1.9888135e-19)
(0.25909705 -0.00028576382 -1.449285e-19)
(0.2436552 -0.00017740821 -3.9294963e-19)
(0.22080343 -8.3473061e-05 -2.4303377e-19)
(0.18351045 -1.4804615e-05 4.7256775e-20)
(0.27589768 -3.4431105e-05 -1.2470217e-18)
(0.27589473 -8.6221417e-05 1.7708415e-19)
(0.27587888 -0.00013577913 -6.0380847e-19)
(0.27582384 -0.00018651757 1.4563185e-19)
(0.27567139 -0.00023435206 4.672621e-19)
(0.27529788 -0.00027811161 1.9293242e-19)
(0.27443375 -0.00031435606 -1.4873175e-19)
(0.27243556 -0.00033536392 -4.891834e-20)
(0.26779662 -0.00032206948 -6.8823804e-20)
(0.25820551 -0.00025510598 -1.7789831e-19)
(0.24240122 -0.00015160162 -1.2006798e-19)
(0.21980119 -6.8691002e-05 -1.6668651e-19)
(0.18291435 -1.2618553e-05 -2.2499258e-19)
(0.27713109 -3.3908296e-05 -8.8322094e-19)
(0.27712546 -8.4858001e-05 1.5360441e-19)
(0.27710201 -0.00013357264 -3.5272098e-19)
(0.27702977 -0.00018333502 3.5350627e-19)
(0.27684047 -0.00022998947 3.5372876e-19)
(0.2763893 -0.00027211088 1.30661e-19)
(0.27535691 -0.00030570399 -1.0861275e-19)
(0.2729805 -0.00032135787 -4.0864501e-20)
(0.26762111 -0.00029886295 -9.8174653e-20)
(0.25727242 -0.00022610441 -2.7019632e-19)
(0.24126718 -0.00012956886 -2.201786e-19)
(0.21893722 -5.7057434e-05 -1.8654344e-19)
(0.18241982 -1.0759083e-05 -2.1088159e-19)
(0.27834572 -3.3423243e-05 -2.87755e-20)
(0.27833694 -8.3595438e-05 -7.8996091e-20)
(0.2783046 -0.00013151911 2.7698577e-19)
(0.27821241 -0.00018034488 9.3164513e-19)
(0.27798052 -0.00022582105 3.6171348e-21)
(0.27743925 -0.00026622306 1.8228702e-19)
(0.27620962 -0.00029685485 4.2918925e-19)
(0.27340008 -0.00030643644 1.9974703e-20)
(0.26730692 -0.00027509383 -2.046651e-19)
(0.25633756 -0.0001991843 -1.3568569e-19)
(0.24025214 -0.0001108758 -1.7652545e-19)
(0.21819234 -4.7749367e-05 -2.5431978e-19)
(0.18200662 -9.1303522e-06 -3.5136655e-19)
(0.27954284 -3.2967675e-05 1.8268258e-19)
(0.27953036 -8.2411064e-05 -5.5679821e-20)
(0.27948767 -0.00012958149 1.1602291e-18)
(0.27937237 -0.00017749197 -9.5891263e-20)
(0.27909121 -0.00022176546 -8.9286298e-21)
(0.27844503 -0.00026032527 2.9156081e-19)
(0.27698441 -0.00028758731 3.1477813e-19)
(0.27368915 -0.00029046172 -1.4481341e-20)
(0.26688073 -0.00025114512 1.9414308e-20)
(0.25543062 -0.00017462896 2.454225e-19)
(0.2393495 -9.5013855e-05 -1.9239929e-21)
(0.21755 -4.0152309e-05 5.1517221e-20)
(0.18165972 -7.6839581e-06 -1.2903045e-19)
(0.28072346 -3.253541e-05 1.4424971e-18)
(0.28070667 -8.1287794e-05 6.2581013e-19)
(0.28065194 -0.00012773124 8.7022417e-19)
(0.28050986 -0.0001747318 1.5368453e-19)
(0.28017156 -0.00021775304 -2.1290631e-19)
(0.27940289 -0.00025430188 7.1318794e-20)
(0.27767312 -0.00027769789 1.957021e-19)
(0.27384765 -0.00027342828 2.683698e-19)
(0.26637281 -0.00022746054 1.4054573e-19)
(0.2545711 -0.00015254851 -1.0847803e-19)
(0.23855012 -8.1484032e-05 -3.3930569e-19)
(0.21699614 -3.3827435e-05 -1.5686554e-19)
(0.18136794 -6.3925378e-06 8.3897409e-20)
(0.28188837 -3.2121655e-05 1.221641e-18)
(0.28186655 -8.0212344e-05 2.2911581e-18)
(0.28179785 -0.00012594549 2.0670281e-19)
(0.28162471 -0.00017202641 1.6675714e-19)
(0.28121999 -0.00021372065 -6.787222e-20)
(0.28030804 -0.00024803603 1.0455814e-19)
(0.27826773 -0.00026701328 2.0743129e-19)
(0.27388156 -0.00025545692 3.1994124e-19)
(0.26581311 -0.00020447967 1.7089556e-19)
(0.25377001 -0.00013289057 -2.4146723e-19)
(0.23784411 -6.9849922e-05 -2.8004176e-19)
(0.21651887 -2.8467155e-05 -3.1169412e-19)
(0.18112283 -5.237093e-06 -1.2082974e-19)
(0.28303819 -3.1722486e-05 5.3875982e-19)
(0.28301052 -7.917385e-05 1.2616067e-18)
(0.28292559 -0.00012420469 4.0063089e-19)
(0.28271638 -0.00016934096 -6.4562456e-19)
(0.2822343 -0.00020960734 6.1541146e-19)
(0.28115476 -0.00024140493 2.177301e-19)
(0.27876144 -0.00025540747 -1.4923239e-19)
(0.27380292 -0.00023677356 2.9337964e-19)
(0.26522808 -0.00018258167 2.7713608e-19)
(0.25303215 -0.00011548282 1.1130652e-19)
(0.23722187 -5.9756961e-05 1.6838865e-19)
(0.21610816 -2.3855674e-05 4.7460669e-20)
(0.18091788 -4.2018432e-06 4.5231729e-20)
(0.28417339 -3.1334452e-05 1.0100717e-18)
(0.28413893 -7.8162818e-05 -5.533807e-20)
(0.28403512 -0.00012249081 8.9749768e-21)
(0.28378396 -0.00016664114 8.6369917e-20)
(0.28321158 -0.0002053501 -1.2445081e-20)
(0.28193659 -0.0002342804 1.5975481e-19)
(0.27914984 -0.00024281873 4.1710449e-19)
(0.27362851 -0.0002176778 6.1532384e-19)
(0.26463906 -0.00016204558 2.9260458e-19)
(0.25235823 -0.00010008753 -4.6500001e-19)
(0.23667446 -5.0928432e-05 -2.6700744e-19)
(0.21575559 -1.9839553e-05 1.1969481e-20)
(0.18074793 -3.2726378e-06 3.0471868e-20)
(0.28529433 -3.0954306e-05 2.0388067e-18)
(0.28525196 -7.7170337e-05 -6.9049034e-20)
(0.28512619 -0.000120786 4.4951501e-19)
(0.28482614 -0.00016389138 2.4521431e-19)
(0.28414822 -0.00020087986 3.198979e-20)
(0.28264669 -0.00022653515 1.935321e-19)
(0.27943202 -0.00022926076 3.8607001e-19)
(0.27337791 -0.00019850622 2.6752396e-19)
(0.26406181 -0.0001430334 1.8871559e-19)
(0.25174654 -8.644968e-05 7.488598e-20)
(0.23619383 -4.3151081e-05 -1.7883611e-19)
(0.21545404 -1.6307481e-05 -4.7648707e-20)
(0.18060883 -2.4367066e-06 5.728951e-20)
(0.28640123 -3.0578785e-05 2.1243123e-18)
(0.28634965 -7.6187464e-05 5.057169e-20)
(0.28619826 -0.00011907139 4.1575826e-19)
(0.28584114 -0.00016105348 -2.9301679e-19)
(0.28503985 -0.00019611847 4.74578e-19)
(0.2832784 -0.00021805401 1.5731191e-19)
(0.27961117 -0.00021482471 7.804957e-20)
(0.27307114 -0.00017959427 2.4119737e-19)
(0.26350715 -0.00012559657 1.1838227e-19)
(0.25119402 -7.4328965e-05 5.2595536e-19)
(0.23577276 -3.6259371e-05 3.8514174e-19)
(0.21519748 -1.3176836e-05 6.4450798e-20)
(0.18049716 -1.6827577e-06 1.9960312e-19)
(0.28749419 -3.0204452e-05 -1.8244548e-19)
(0.28743185 -7.520472e-05 1.522358e-18)
(0.28725056 -0.00011732616 9.7759316e-20)
(0.28682673 -0.00015808531 7.9116361e-20)
(0.28588145 -0.00019097762 3.4402149e-19)
(0.28382593 -0.00020874813 1.5608344e-19)
(0.27969464 -0.00019967158 1.4521965e-20)
(0.27272685 -0.00016124193 1.0291427e-19)
(0.26298189 -0.00010969946 6.5217213e-20)
(0.25069697 -6.3515018e-05 -4.938563e-20)
(0.23540492 -3.0122541e-05 2.4793153e-19)
(0.21498079 -1.0384801e-05 -3.6435175e-20)
(0.18041 -1.0010018e-06 -9.058176e-21)
(0.28857317 -2.9827536e-05 -7.5789405e-19)
(0.28849825 -7.4211612e-05 1.6375703e-18)
(0.28828196 -0.00011552671 7.2057854e-19)
(0.28778008 -0.00015493915 2.8691771e-19)
(0.28666738 -0.00018536089 3.7224897e-19)
(0.28428521 -0.00019856896 2.6300626e-19)
(0.27969326 -0.00018401637 -2.6022802e-20)
(0.27236107 -0.00014368791 1.9176176e-19)
(0.26248991 -9.5249867e-05 1.1418595e-19)
(0.25025143 -5.3830554e-05 7.0776027e-20)
(0.23508472 -2.4635272e-05 1.8067994e-19)
(0.21479959 -7.8824885e-06 1.3518876e-19)
(0.18034487 -3.8307878e-07 -1.6758639e-20)
(0.28963798 -2.944375e-05 6.9936826e-19)
(0.28954832 -7.3196105e-05 4.5163443e-19)
(0.28929102 -0.00011364593 1.35435e-19)
(0.2886978 -0.00015155982 9.1646996e-19)
(0.28739174 -0.00017916927 -1.4310711e-19)
(0.28465455 -0.00018751865 1.6874339e-19)
(0.27962017 -0.00016810641 5.9060374e-19)
(0.2719867 -0.00012709648 4.7006033e-19)
(0.26203302 -8.2127519e-05 -4.0120688e-20)
(0.24985346 -4.512813e-05 -2.4564783e-19)
(0.23480728 -1.9711264e-05 -3.124971e-19)
(0.21465012 -5.630991e-06 -1.364192e-20)
(0.18029962 1.7812883e-07 -5.1709155e-20)
(0.29068824 -2.9047997e-05 2.4093896e-18)
(0.29058125 -7.2143821e-05 7.5952877e-19)
(0.29027586 -0.0001116522 5.5443842e-19)
(0.28957586 -0.00014788248 9.7338954e-19)
(0.28804865 -0.00017230926 1.1090894e-19)
(0.28493523 -0.00017565385 1.6436871e-19)
(0.2794894 -0.00015219579 3.6799044e-19)
(0.2716136 -0.00011155661 -1.3243278e-19)
(0.26161163 -7.0203562e-05 -1.5729172e-19)
(0.24949925 -3.7283208e-05 1.4766695e-19)
(0.23456828 -1.527706e-05 -2.6218366e-19)
(0.21452909 -3.5978745e-06 -7.4621032e-20)
(0.18027234 6.8891646e-07 -4.1874477e-20)
(0.29172336 -2.863428e-05 4.9594546e-19)
(0.291596 -7.1037634e-05 1.1784785e-18)
(0.29123415 -0.00010950892 6.3702234e-19)
(0.29040962 -0.00014383257 6.7030979e-20)
(0.28863287 -0.00016470429 6.5945033e-19)
(0.28513156 -0.00016308395 3.4497528e-19)
(0.27931466 -0.00013652206 -4.6732654e-21)
(0.27124896 -9.7093557e-05 1.4701892e-19)
(0.26122524 -5.9353649e-05 3.2844282e-19)
(0.24918522 -3.0190176e-05 5.2731699e-19)
(0.23436395 -1.12703e-05 3.5584434e-19)
(0.2144337 -1.7305505e-06 1.5154526e-19)
(0.18026136 1.1761558e-06 1.3398195e-19)
(0.29274252 -2.8196034e-05 2.5670161e-19)
(0.29259116 -6.985846e-05 2.0905969e-18)
(0.29216305 -0.00010717577 5.3824298e-19)
(0.29119393 -0.00013933085 -1.2675111e-19)
(0.28914031 -0.00015631032 4.5965813e-19)
(0.28525057 -0.00014996782 3.5944612e-19)
(0.27910837 -0.00012129298 7.6600032e-20)
(0.2708978 -8.3692847e-05 2.9753523e-19)
(0.26087272 -4.9471605e-05 3.2772157e-19)
(0.24890802 -2.3766775e-05 2.0807787e-19)
(0.23419085 -7.6476573e-06 3.910408e-19)
(0.21436056 -1.6257366e-08 1.3232363e-19)
(0.18026627 1.6403974e-06 5.5509845e-21)
(0.2937446 -2.7725099e-05 8.0480013e-19)
(0.29356496 -6.858319e-05 1.5376373e-18)
(0.29305914 -0.00010460504 9.2062105e-19)
(0.29192334 -0.00013429445 2.3041568e-19)
(0.28956868 -0.00014712078 3.1894581e-19)
(0.2853013 -0.00013649478 1.7284339e-19)
(0.27888121 -0.00010666837 2.9381484e-20)
(0.27056351 -7.1310474e-05 2.6199349e-19)
(0.26055265 -4.0462893e-05 1.984437e-19)
(0.24866458 -1.7940254e-05 7.8910651e-20)
(0.23404606 -4.3539053e-06 2.4176051e-19)
(0.21430781 1.5374071e-06 1.101585e-19)
(0.18028522 2.0563883e-06 4.0429944e-20)
(0.29472815 -2.7211025e-05 -1.5449963e-18)
(0.29451518 -6.7183247e-05 -4.4722749e-20)
(0.29391842 -0.00010173906 3.2818892e-19)
(0.29259237 -0.00012864185 9.6664314e-19)
(0.28991788 -0.00013716949 7.4559323e-21)
(0.28529395 -0.00012286451 4.0344985e-19)
(0.27864192 -9.2752925e-05 9.2688398e-19)
(0.27024822 -5.9882441e-05 7.7117784e-19)
(0.26026336 -3.2238662e-05 1.8785972e-19)
(0.24845204 -1.2642377e-05 -5.6690503e-19)
(0.23392646 -1.3358814e-06 -4.8776241e-19)
(0.21427448 2.956177e-06 -9.0966497e-20)
(0.18031663 2.4263117e-06 1.4331805e-20)
(0.29569132 -2.6641404e-05 1.1518566e-18)
(0.2954391 -6.5625549e-05 7.2979674e-19)
(0.29473631 -9.8512688e-05 1.1468548e-18)
(0.29319592 -0.0001223057 1.0344866e-18)
(0.29019018 -0.00012653597 3.8306947e-19)
(0.2852389 -0.00010927516 6.7029605e-19)
(0.27839743 -7.9607265e-05 8.5590209e-19)
(0.26995312 -4.9342228e-05 1.9899816e-19)
(0.26000309 -2.4722179e-05 2.120941e-20)
(0.24826773 -7.8150937e-06 2.0482489e-19)
(0.23382955 1.4151469e-06 -2.3171343e-19)
(0.21425921 4.2390782e-06 -2.3715811e-20)
(0.18035932 2.7544331e-06 2.1401028e-20)
(0.29663173 -2.6001182e-05 3.5048898e-18)
(0.29633339 -6.3871158e-05 2.4324649e-19)
(0.29550768 -9.4853899e-05 1.686001e-18)
(0.29372976 -0.0001152412 6.923832e-19)
(0.29039011 -0.00011533898 8.1181841e-19)
(0.28514604 -9.5905389e-05 5.2552678e-19)
(0.27815305 -6.7254144e-05 5.3842788e-20)
(0.26967872 -3.9623337e-05 1.9448483e-19)
(0.25977003 -1.784186e-05 4.8915415e-19)
(0.24810923 -3.383972e-06 6.6786643e-19)
(0.23375398 3.9312005e-06 5.8517953e-19)
(0.21425996 5.3906059e-06 2.5559158e-19)
(0.18041214 3.0443375e-06 1.5888866e-19)
(0.29754645 -2.5272391e-05 5.0695992e-19)
(0.29719411 -6.1874454e-05 2.3097435e-18)
(0.29622706 -9.0687767e-05 6.8087464e-19)
(0.29419101 -0.0001074348 5.5663749e-19)
(0.290524 -0.00010372738 7.2649035e-19)
(0.28502427 -8.2903377e-05 2.2609818e-19)
(0.27791277 -5.5688948e-05 1.4928993e-20)
(0.26942499 -3.0662244e-05 3.4413818e-19)
(0.25956226 -1.1539693e-05 5.8739374e-19)
(0.24797362 6.7588458e-07 6.0621714e-20)
(0.23369893 6.2277087e-06 2.9870865e-19)
(0.21427538 6.4296278e-06 1.25486e-19)
(0.18047413 3.3030821e-06 1.4078581e-20)
(0.29843186 -2.443409e-05 -1.122117e-18)
(0.29801658 -5.9582982e-05 1.7117861e-18)
(0.29688883 -8.5943402e-05 2.0888102e-19)
(0.29457851 -9.8910855e-05 3.1699301e-19)
(0.29059935 -9.1868443e-05 6.0629124e-19)
(0.28488126 -7.0382636e-05 3.5561078e-19)
(0.27767954 -4.4890696e-05 1.8086576e-19)
(0.26919163 -2.2395858e-05 4.7224298e-19)
(0.25937815 -5.7364322e-06 1.2444717e-19)
(0.24785972 4.3904686e-06 1.3895471e-19)
(0.2336621 8.3015821e-06 1.5795572e-20)
(0.21430404 7.3666866e-06 1.0614043e-19)
(0.18054443 3.5354587e-06 4.0735642e-20)
(0.29928359 -2.3462153e-05 3.9269383e-23)
(0.29879547 -5.6937594e-05 2.5030013e-19)
(0.29748763 -8.0561628e-05 8.4355587e-19)
(0.29489309 -8.9732439e-05 1.192893e-18)
(0.29062422 -7.9932353e-05 6.8107025e-21)
(0.28472341 -5.8420117e-05 7.6357705e-19)
(0.27745536 -3.4827546e-05 1.1824159e-18)
(0.26897782 -1.4770423e-05 8.1619498e-19)
(0.25921519 -3.9181503e-07 -1.872606e-20)
(0.24776702 7.7920282e-06 -3.0549913e-19)
(0.23364198 1.0181086e-05 -2.6770337e-19)
(0.21434474 8.2147492e-06 6.493564e-20)
(0.18062225 3.7449897e-06 2.0972846e-20)
(0.30009637 -2.232973e-05 2.4626649e-18)
(0.29952479 -5.38755e-05 2.2540585e-18)
(0.29801875 -7.4505261e-05 7.9561548e-19)
(0.29513749 -7.9999961e-05 1.1145741e-18)
(0.29060659 -6.8080593e-05 4.8393506e-19)
(0.28455591 -4.7062494e-05 5.3187368e-19)
(0.27724164 -2.5459241e-05 7.0935182e-19)
(0.2687829 -7.7156862e-06 2.0949532e-19)
(0.25907248 4.5153741e-06 3.0647098e-19)
(0.24769347 1.0881366e-05 -1.4441124e-19)
(0.23363709 1.1884846e-05 -1.2442287e-19)
(0.21439637 8.9837283e-06 -2.4173154e-21)
(0.1807069 3.9343396e-06 -4.014523e-20)
(0.30086402 -2.1007838e-05 2.3094883e-18)
(0.30019808 -5.0335142e-05 2.365393e-18)
(0.29847859 -6.7767507e-05 1.3506163e-18)
(0.29531608 -6.984363e-05 -7.3673835e-19)
(0.29055391 -5.6454434e-05 7.6797643e-19)
(0.28438287 -3.6332035e-05 2.02957e-19)
(0.27703906 -1.6748274e-05 -1.6615029e-19)
(0.2686053 -1.1875376e-06 -1.3267828e-19)
(0.25894976 9.0213243e-06 3.6821457e-19)
(0.24763751 1.3689782e-05 6.9529281e-19)
(0.23364609 1.3431075e-05 2.9790172e-19)
(0.21445793 9.6806695e-06 -1.1419294e-19)
(0.18079772 4.1050127e-06 -4.6638093e-20)
(0.30157943 -1.9467191e-05 -3.7344532e-19)
(0.30080863 -4.6264341e-05 2.6810296e-18)
(0.29886499 -6.0378832e-05 1.1610484e-18)
(0.29543444 -5.9413958e-05 -4.0788588e-19)
(0.29047287 -4.5169372e-05 2.0450999e-19)
(0.28420752 -2.6229157e-05 1.8205641e-19)
(0.27684812 -8.6362739e-06 8.4091375e-20)
(0.26844451 4.8386408e-06 -2.0262061e-19)
(0.25884557 1.3135762e-05 -7.6954506e-20)
(0.2475977 1.624409e-05 4.1859293e-19)
(0.23366777 1.4835348e-05 3.0385657e-19)
(0.21452852 1.0311977e-05 -1.2902058e-19)
(0.18089414 4.2585258e-06 -7.7299489e-20)
(0.30223466 -1.7681569e-05 2.2728288e-18)
(0.3013499 -4.1630428e-05 1.2697765e-18)
(0.29917751 -5.2409539e-05 9.1393469e-19)
(0.29549883 -4.8869421e-05 1.0898183e-18)
(0.29036918 -3.431365e-05 4.9397725e-19)
(0.28403214 -1.674751e-05 5.6973893e-19)
(0.27666826 -1.0891029e-06 5.5895187e-19)
(0.26830088 1.0390982e-05 -1.7664865e-19)
(0.25875851 1.6888489e-05 -2.7668693e-19)
(0.24757272 1.8568187e-05 -5.3942306e-19)
(0.23370102 1.6110022e-05 1.1376991e-20)
(0.21460732 1.0882761e-05 -7.7931451e-20)
(0.18099561 4.3960735e-06 -6.7038844e-20)
(0.30282117 -1.5633388e-05 7.212561e-19)
(0.30181594 -3.6431482e-05 3.4929886e-19)
(0.29941741 -4.396855e-05 3.8978812e-19)
(0.29551566 -3.8365458e-05 8.3827345e-19)
(0.2902477 -2.3945212e-05 8.232406e-19)
(0.28385859 -7.8477112e-06 3.7589259e-19)
(0.27649982 5.9141391e-06 1.8612721e-19)
(0.26817344 1.5479829e-05 2.072482e-19)
(0.25868728 2.0310855e-05 8.6048475e-20)
(0.24756135 2.0682649e-05 -2.3164023e-19)
(0.23374484 1.7265712e-05 -1.4182215e-19)
(0.21469357 1.1397592e-05 -4.7633499e-20)
(0.18110164 4.5187625e-06 -4.6092634e-20)
(0.30333026 -1.3320783e-05 -2.0312905e-18)
(0.30220189 -3.0705576e-05 2.0668274e-18)
(0.29958744 -3.5196358e-05 -4.2122332e-20)
(0.29549103 -2.8043627e-05 1.2038233e-19)
(0.29011218 -1.4099819e-05 6.8384289e-19)
(0.28368733 4.8519784e-07 2.4262571e-19)
(0.276344 1.2388926e-05 -1.7081884e-19)
(0.26806119 2.0135153e-05 3.4119496e-19)
(0.2586307 2.3431377e-05 4.9058267e-19)
(0.24756246 2.2604589e-05 5.7598311e-19)
(0.23379832 1.8311492e-05 1.5790777e-19)
(0.21478659 1.186048e-05 1.4033492e-19)
(0.18121176 4.6275549e-06 -1.5998825e-20)
(0.30375374 -1.0764894e-05 2.5573648e-18)
(0.30250438 -2.4536334e-05 3.69912e-18)
(0.29969147 -2.6255567e-05 2.1842248e-18)
(0.29543051 -1.8024165e-05 -3.8354792e-19)
(0.28996562 -4.7857754e-06 1.5893637e-19)
(0.28352015 8.2431597e-06 2.7659453e-19)
(0.27620025 1.8335924e-05 -8.5974761e-20)
(0.26796311 2.4389507e-05 -1.2084232e-19)
(0.25858763 2.6274695e-05 1.6843759e-19)
(0.24757502 2.4348947e-05 3.4769663e-19)
(0.2338606 1.9255564e-05 1.5496411e-19)
(0.21488574 1.2275106e-05 -2.8998932e-20)
(0.18132555 4.7233519e-06 -4.2452766e-20)
(0.30408466 -8.01456e-06 2.8679979e-18)
(0.30272186 -1.8051762e-05 3.3595221e-18)
(0.29973407 -1.7315847e-05 2.0931033e-18)
(0.29533886 -8.3895392e-06 5.1740605e-19)
(0.28980995 3.9790105e-06 4.0489906e-19)
(0.28335875 1.542455e-05 2.684978e-19)
(0.27606809 2.3784784e-05 -1.325632e-19)
(0.26787825 2.8272331e-05 -3.2069839e-19)
(0.25855702 2.8860213e-05 -2.3129567e-19)
(0.24759809 2.5927657e-05 1.2831551e-19)
(0.23393092 2.0104448e-05 -1.8356224e-20)
(0.21499042 1.2644258e-05 -8.8657434e-20)
(0.1814426 4.8067371e-06 -2.5274802e-20)
(0.30431819 -5.1449252e-06 9.4890483e-19)
(0.30285461 -1.1412602e-05 -2.2030185e-19)
(0.29971994 -8.5331139e-06 3.8206855e-19)
(0.29521955 7.8213771e-07 1.4815493e-18)
(0.28964857 1.2143138e-05 9.8578372e-19)
(0.28320331 2.2022675e-05 6.7443031e-19)
(0.27594691 2.8765175e-05 9.1017155e-19)
(0.26780566 3.1808746e-05 3.5345758e-19)
(0.25853789 3.1205221e-05 2.5448454e-20)
(0.24763076 2.7351755e-05 -1.9197299e-19)
(0.23400854 2.0864236e-05 -1.1678681e-19)
(0.2151001 1.2970579e-05 -1.3359472e-19)
(0.18156252 4.8783003e-06 -6.4383668e-20)
(0.30445221 -2.2472129e-06 -4.3632403e-19)
(0.30290466 -4.7891954e-06 -3.8884324e-19)
(0.2996534 -5.7391562e-08 1.0209298e-19)
(0.29507686 9.3869288e-06 6.2162134e-19)
(0.28948321 1.9670607e-05 4.2214361e-19)
(0.28305386 2.8057853e-05 2.318362e-20)
(0.27583605 3.3302725e-05 4.1814892e-19)
(0.26774441 3.5018235e-05 1.4198245e-19)
(0.25852929 3.3323472e-05 1.4118103e-19)
(0.24767222 2.8629944e-05 -1.9810441e-19)
(0.23409279 2.153952e-05 -1.4805013e-20)
(0.21521426 1.3255915e-05 -7.6245175e-20)
(0.18168496 4.938368e-06 -7.4192121e-20)
(0.30448759 5.8144967e-07 -1.8801165e-18)
(0.30287533 1.6332356e-06 9.0427245e-19)
(0.29953939 7.9404346e-06 2.3722138e-19)
(0.29491435 1.7334295e-05 7.3047363e-19)
(0.28931491 2.6550434e-05 1.4381769e-19)
(0.28291026 3.3548762e-05 -9.4593971e-20)
(0.2757348 3.7416561e-05 -5.3115221e-19)
(0.26769361 3.7916305e-05 -9.1529443e-20)
(0.25853035 3.5226138e-05 1.0132967e-19)
(0.24772169 2.9769098e-05 7.5611751e-20)
(0.23418305 2.213375e-05 2.6805156e-20)
(0.2153324 1.350154e-05 1.4561496e-19)
(0.18180955 4.9870914e-06 3.8600675e-21)
(0.30442824 3.2381549e-06 1.2332474e-18)
(0.30277199 7.6570196e-06 2.7933581e-18)
(0.29938292 1.5304047e-05 2.1600854e-18)
(0.29473444 2.4565414e-05 -1.8208467e-20)
(0.28914434 3.2781736e-05 2.8904255e-20)
(0.28277222 3.8508159e-05 1.2822918e-19)
(0.27564244 4.1120478e-05 -2.8045835e-19)
(0.26765239 4.051461e-05 1.0174211e-19)
(0.25854021 3.6921377e-05 -1.0847179e-19)
(0.24777843 3.077391e-05 1.0888176e-19)
(0.23427872 2.2649007e-05 1.8980203e-19)
(0.21545406 1.3708022e-05 3.6407869e-20)
(0.18193595 5.0243961e-06 -2.4735903e-21)
(0.30428147 5.6356018e-06 4.7366311e-18)
(0.30260141 1.312241e-05 3.3035819e-18)
(0.29918843 2.1930456e-05 2.4875706e-18)
(0.29453912 3.1047556e-05 -4.4851633e-20)
(0.28897192 3.8362718e-05 -1.5389876e-20)
(0.28263933 4.2943574e-05 3.0888736e-19)
(0.2755582 4.442386e-05 3.2798654e-19)
(0.26761989 4.2821e-05 3.1209257e-20)
(0.25855808 3.8414262e-05 -1.1945243e-19)
(0.24784174 3.1646855e-05 5.2555779e-20)
(0.23437921 2.3085962e-05 1.3331657e-19)
(0.21557877 1.3875171e-05 9.7114887e-21)
(0.18206381 5.0499532e-06 -4.957966e-20)
(0.30405678 7.7205516e-06 3.2724818e-18)
(0.30237113 1.7926732e-05 2.607476e-18)
(0.29896016 2.7756845e-05 2.2866904e-18)
(0.29433004 3.6759549e-05 7.9629017e-19)
(0.28879784 4.329103e-05 1.5990618e-19)
(0.2825111 4.6859638e-05 4.3113393e-19)
(0.2754813 4.7332626e-05 2.7745413e-19)
(0.26759529 4.4839963e-05 -1.0497164e-19)
(0.25858316 3.9707112e-05 -5.9080169e-22)
(0.24791094 3.2388407e-05 4.4427135e-20)
(0.23448396 2.3444004e-05 -1.3052458e-19)
(0.21570609 1.4002113e-05 -1.4030133e-19)
(0.18219278 5.0632094e-06 -5.860482e-21)
(0.30376497 9.4676981e-06 -1.582214e-18)
(0.30208913 2.2015498e-05 1.475564e-18)
(0.29870222 3.2751953e-05 1.3758399e-18)
(0.29410866 4.1691485e-05 9.4466906e-19)
(0.2886222 4.7566351e-05 4.2798171e-19)
(0.28238699 5.0259518e-05 -1.8754475e-19)