/*--------------------------------*- C++ -*----------------------------------*\
| =========                 |                                                 |
| \\      /  F ield         | OpenFOAM: The Open Source CFD Toolbox           |
|  \\    /   O peration     | Version:  2506                                  |
|   \\  /    A nd           | Website:  www.openfoam.com                      |
|    \\/     M anipulation  |                                                 |
\*---------------------------------------------------------------------------*/
FoamFile
{
    version     2.0;
    format      ascii;
    arch        "LSB;label=32;scalar=64";
    class       volScalarField;
    location    "6000/rock";
    object      T;
}
// * * * * * * * * * * * * * * * * * * * * * * * * * * * * * * * * * * * * * //

dimensions      [0 0 0 1 0 0 0];

internalField   nonuniform List<scalar> 
6000
(
315.49902
304.42944
298.7425
295.3445
293.11302
291.55042
290.40422
289.5334
288.85336
288.31042
287.869
287.50468
287.20013
286.94279
286.72333
286.53469
286.37145
286.22936
286.10507
285.9959
285.89966
285.81456
285.7391
285.67201
285.6122
285.55866
285.51043
285.46653
285.42572
285.38624
319.11549
308.33874
302.17843
298.27895
295.63219
293.74088
292.33507
291.25719
290.40984
289.72996
289.1751
288.71575
288.33085
288.00496
287.72659
287.48699
287.27941
287.09857
286.94025
286.80109
286.67836
286.56978
286.4735
286.38791
286.31164
286.24345
286.18221
286.12679
286.07598
286.02843
320.92099
310.89215
304.76214
300.67861
297.80453
295.69758
294.10255
292.86309
291.87887
291.08305
290.42962
289.88605
289.42879
289.0404
288.70775
288.4208
288.17174
287.9544
287.76389
287.59625
287.44827
287.31729
287.20109
287.09781
287.00584
286.92376
286.85032
286.78432
286.72466
286.67028
322.01718
312.66594
306.73179
302.63264
299.65854
297.42512
295.70233
294.34389
293.25278
292.36248
291.62613
291.00996
290.48909
290.04489
289.66317
289.33295
289.04564
288.79442
288.57383
288.37946
288.20768
288.05551
287.92045
287.80041
287.69357
287.5984
287.51353
287.43776
287.37001
287.30939
322.77661
313.97781
308.27515
304.23876
301.24141
298.94437
297.14204
295.70079
294.52973
293.56513
292.76108
292.0839
291.50837
291.01533
290.59001
290.22087
289.89881
289.61655
289.36821
289.14901
288.95504
288.78302
288.63025
288.49443
288.37363
288.26616
288.1706
288.08571
288.01044
287.94393
323.34901
314.99962
309.5207
305.57912
302.60157
300.2823
298.43584
296.94046
295.71221
294.69114
293.83338
293.10617
292.48464
291.94965
291.48624
291.08264
290.72944
290.41909
290.14543
289.90343
289.68895
289.49852
289.32925
289.17871
289.04484
288.92587
288.82031
288.72688
288.64453
288.57241
323.805
315.82814
310.5533
306.71649
303.78147
301.46605
299.60028
298.07257
296.80546
295.74302
294.84383
294.07657
293.41712
292.84674
292.35059
291.91691
291.53618
291.20071
290.90421
290.64149
290.40824
290.20087
290.01636
289.85216
289.70613
289.57644
289.46153
289.36009
289.27106
289.19354
324.18251
316.52102
311.42926
307.6972
304.81577
302.52003
300.65186
299.10788
297.81622
296.72478
295.79464
294.99607
294.30601
293.70629
293.18245
292.72287
292.3181
291.96045
291.64357
291.36219
291.11192
290.88908
290.69059
290.51381
290.35653
290.21687
290.09324
289.98429
289.88891
289.80622
324.50394
317.11454
312.18676
308.55516
305.73188
303.46511
301.60578
300.05707
298.7518
297.64125
296.68884
295.86649
295.15224
294.52865
293.98174
293.50017
293.07469
292.69766
292.36277
292.06475
291.79918
291.56235
291.35112
291.16281
290.99517
290.84629
290.71453
290.59853
290.49715
290.40947
324.78356
317.63265
312.85234
309.31534
306.55123
304.31855
302.47539
300.93012
299.61946
298.49756
297.52997
296.69016
295.95727
295.31464
294.74883
294.24887
293.80575
293.41199
293.06136
292.74864
292.46943
292.22002
291.99725
291.79844
291.62131
291.46392
291.32461
291.20201
291.09494
291.00246
325.0309
318.09185
313.44494
309.99636
307.29054
305.09452
303.27215
301.73601
300.42604
299.29881
298.32175
297.46972
296.72291
296.06543
295.48442
294.96931
294.51136
294.10331
293.73906
293.41347
293.1222
292.86157
292.62843
292.42011
292.23432
292.0691
291.92281
291.79402
291.68157
291.58449
325.25261
318.5039
313.97842
310.61231
307.96291
305.80452
304.00575
302.48266
301.17783
300.04989
299.06789
298.20792
297.45115
296.78244
296.18946
295.66206
295.19184
294.77173
294.39581
294.05906
293.75721
293.48664
293.24424
293.02734
292.83368
292.6613
292.50854
292.37399
292.25645
292.15494
325.45347
318.87739
314.46316
311.17397
308.5787
306.45793
304.68435
303.17693
301.88045
300.75532
299.77193
298.90752
298.14408
297.46719
296.86503
296.32789
295.84764
295.4175
295.03169
294.68535
294.37431
294.09499
293.84436
293.61978
293.41899
293.24007
293.08135
292.94142
292.81908
292.71332
325.63703
319.21881
314.90708
311.68975
309.14613
307.06242
305.31479
303.82473
302.53891
301.41921
300.43724
299.57116
298.80379
298.12128
297.51235
296.96765
296.47939
296.041
295.64693
295.29243
294.97344
294.6865
294.42859
294.19715
293.98995
293.80507
293.64086
293.49592
293.36905
293.25922
325.80599
319.53311
315.31633
312.16629
309.67186
307.62426
305.90281
304.43115
303.15759
302.04529
301.06688
300.20139
299.43229
298.74632
298.13264
297.58229
297.08776
296.64274
296.24183
295.88046
295.55469
295.26112
294.99684
294.7593
294.54634
294.35605
294.1868
294.0372
293.90605
293.79232
325.96243
319.82419
315.69577
312.60889
310.16125
308.14866
306.45324
305.00055
303.74034
302.63687
301.66369
300.80054
300.03153
299.34388
298.72718
298.1728
297.67352
297.22325
296.8168
296.44972
296.11819
295.81893
295.54907
295.30615
295.08802
294.89283
294.71897
294.56504
294.42985
294.31238
326.10804
320.09513
316.0493
313.02187
310.61873
308.63993
306.97015
305.53668
304.29052
303.19692
302.23022
301.37081
300.60333
299.91547
299.29719
298.74016
298.23745
297.78316
297.37228
297.00051
296.66417
296.36004
296.08535
295.83769
295.61496
295.41534
295.23724
295.07929
294.9403
294.81925
326.24416
320.34846
316.38008
313.40874
311.04795
309.10169
307.45701
306.04276
304.81107
303.72807
302.76878
301.9142
301.14942
300.46255
299.84388
299.28538
298.78034
298.32309
297.90877
297.53324
297.1929
296.88465
296.60579
296.35398
296.12715
295.92353
295.74155
295.57987
295.43729
295.31282
326.3719
320.58621
316.69073
313.77241
311.45195
309.537
307.91677
306.52157
305.30455
304.23263
303.28145
302.43252
301.67137
300.98646
300.3684
299.80941
299.30301
298.84371
298.42681
298.0483
297.7047
297.393
297.11057
296.85513
296.62467
296.41744
296.23192
296.06676
295.92081
295.79305
326.49216
320.81007
316.98339
314.11532
311.83329
309.94842
308.35196
306.97552
305.77322
304.71267
303.7701
302.92745
302.17066
301.4885
300.87185
300.3132
299.80624
299.34567
298.92693
298.54614
298.19993
297.88536
297.5999
297.3413
297.10762
296.89715
296.70838
296.54
296.39087
296.25997
326.60571
321.02148
317.25989
314.43951
312.19415
310.33818
308.76475
307.40672
306.21905
305.17004
304.2364
303.4005
302.64863
301.96984
301.35528
300.79764
300.29081
299.82963
299.40969
299.02723
298.67897
298.36206
298.07403
297.81271
297.57618
297.36279
297.17105
296.99968
296.84754
296.71363
326.71321
321.22162
317.52175
314.74672
312.53639
310.70818
309.15704
307.81698
306.6438
305.60636
304.68186
303.85305
303.10652
302.43161
301.81967
301.2636
300.75746
300.29623
299.87565
299.49203
299.14221
298.82342
298.53325
298.26958
298.03055
297.81453
297.62007
297.44591
297.29093
297.15413
326.8152
321.41152
317.7703
315.03846
312.8616
311.06006
309.53046
308.20793
307.049
306.02309
305.10784
304.28635
303.54548
302.87482
302.26594
301.7119
301.20692
300.74613
300.32535
299.94104
299.59008
299.26981
298.97786
298.71217
298.47094
298.25255
298.05561
297.87885
297.72118
297.58163
326.91215
321.59205
318.00665
315.31601
313.17117
311.39524
309.88646
308.58097
307.43601
306.42154
305.51558
304.70154
303.96656
303.30045
302.69496
302.14332
301.63989
301.17992
300.75935
300.37471
300.023
299.70158
299.40818
299.14078
298.8976
298.6771
298.47787
298.2987
298.13849
297.99628
327.00448
321.76397
318.23177
315.58048
313.4663
311.71498
310.2263
308.93736
307.80607
306.80287
305.90616
305.09965
304.37072
303.70937
303.10753
302.55859
302.05703
301.59821
301.17818
300.79355
300.44138
300.11913
299.82456
299.5557
299.31083
299.08841
298.88708
298.70565
298.54304
298.3983
327.09253
321.92794
318.44653
315.83284
313.74804
312.02039
310.5511
309.27821
308.16026
307.16815
306.28061
305.48165
304.75885
304.10241
303.50443
302.95841
302.45897
302.00157
301.58235
301.198
300.84566
300.52283
300.22733
299.95725
299.71089
299.48675
299.2835
299.09995
298.93506
298.78788
327.17663
322.08454
318.65167
316.07396
314.01733
312.31243
310.86186
309.60452
308.49956
307.51831
306.63984
305.84838
305.13176
304.48034
303.88635
303.34344
302.84633
302.39057
301.97239
301.58855
301.23626
300.91307
300.61686
300.34575
300.09809
299.87239
299.66737
299.48185
299.3148
299.16529
327.25704
322.23426
318.84783
316.3046
314.275
312.59197
311.15945
309.91717
308.82486
307.85423
306.98467
306.20067
305.49023
304.84387
304.25398
303.7143
303.21967
302.76573
302.34877
301.96564
301.61359
301.29024
300.9935
300.72154
300.47274
300.24565
300.03899
299.85162
299.68251
299.53075
327.334
322.37757
319.03561
316.52543
314.52178
312.8598
311.44469
310.21698
309.13694
308.17668
307.31587
306.53923
305.83493
305.19367
304.60793
304.07159
303.57956
303.12757
302.71199
302.32972
301.97808
301.65472
301.35762
301.08496
300.83516
300.6068
300.39863
300.20952
300.03846
299.88455
327.40774
322.51487
319.21553
316.73705
314.75832
313.1166
311.71828
310.50467
309.43655
308.48639
307.63415
306.86474
306.16654
305.53035
304.9488
304.41585
303.92651
303.47658
303.0625
302.68122
302.33012
302.0069
301.70956
301.43633
301.18566
300.95616
300.74659
300.55584
300.38292
300.22694
327.47844
322.64651
319.38805
316.94
314.98523
313.363
311.98088
310.7809
309.72433
308.784
307.94013
307.17784
306.48565
305.85451
305.27714
304.74762
304.26103
303.81323
303.40074
303.02056
302.67011
302.34714
302.04968
301.776
301.52458
301.29404
301.08316
300.89087
300.71619
300.55822
327.54628
322.77281
319.5536
317.13477
315.20303
313.59958
312.23308
311.04627
310.0009
309.07013
308.23442
307.47909
306.79282
306.16667
305.59348
305.0674
304.58359
304.13799
303.72716
303.34816
302.99845
302.67582
302.37834
302.10431
301.85222
301.62074
301.40866
301.21491
301.03854
300.87865
327.61142
322.89408
319.71256
317.32182
315.41223
313.82685
312.47542
311.30134
310.26681
309.34532
308.51757
307.76905
307.08858
306.46735
305.8983
305.37566
304.89465
304.45128
304.04216
303.6644
303.3155
302.9933
302.69588
302.42158
302.16892
301.93658
301.72337
301.52825
301.35026
301.18854
327.674
323.01058
319.86527
317.50153
315.61326
314.04529
312.70839
311.54661
310.52258
309.6101
308.79008
308.0482
307.37342
306.75704
306.19207
305.67284
305.19464
304.75351
304.34615
303.96968
303.62165
303.29993
303.00265
302.72815
302.47499
302.24186
302.02761
301.83118
301.65165
301.48817
327.73414
323.12256
320.01206
317.67429
315.80653
314.25533
312.93245
311.78255
310.76868
309.86493
309.05243
308.31703
307.64781
307.03618
306.47524
305.95938
305.48397
305.0451
304.6395
304.26436
303.91725
303.59607
303.29897
303.02434
302.77074
302.5369
302.32166
302.124
301.943
301.77781
327.79198
323.23022
320.15321
317.84042
315.99241
314.45738
313.14802
312.00959
311.00555
310.11026
309.30507
308.57597
307.91218
307.30519
306.74822
306.23569
305.76304
305.32643
304.92261
304.54881
304.20264
303.88204
303.58518
303.31047
303.0565
302.82199
302.60583
302.40701
302.22459
302.05777
327.84762
323.33379
320.28899
318.00026
316.17126
314.6518
313.35548
312.22814
311.2336
310.34651
309.54841
308.82544
308.16693
307.56449
307.01139
306.50215
306.03223
305.59785
305.19581
304.82337
304.47818
304.15819
303.8616
303.58686
303.33255
303.09744
302.88042
302.68048
302.49672
302.32831
327.90116
323.43346
320.41966
318.15407
316.3434
314.83895
313.55521
312.43857
311.45322
310.57406
309.78283
309.06582
308.41246
307.81446
307.26516
306.75913
306.2919
305.85973
305.45946
305.08839
304.74418
304.42482
304.12855
303.8538
303.59921
303.36354
303.1457
302.9447
302.75965
302.58973
327.95269
323.52939
320.54543
318.30214
316.50912
315.01913
313.74753
312.64122
311.66475
310.79328
310.00871
309.29748
308.64913
308.05545
307.50986
307.00698
306.5424
306.11241
305.71389
305.34418
305.00096
304.68226
304.38632
304.11161
303.85677
303.62058
303.40197
303.19996
303.01367
302.84229
328.00232
323.62176
320.66654
318.44472
316.6687
315.19267
313.93277
312.83644
311.86855
311.0045
310.22639
309.52076
308.87728
308.28781
307.74583
307.24604
306.78405
306.35621
305.95943
305.59106
305.24884
304.9308
304.63521
304.36056
304.10551
303.86884
303.64951
303.44654
303.25905
303.08626
328.05011
323.71071
320.78317
318.58204
316.8224
315.35982
314.11122
313.02452
312.06492
311.20806
310.43619
309.736
309.09725
308.51187
307.97342
307.47663
307.01718
306.59145
306.19637
305.82934
305.48812
305.17075
304.87552
304.60095
304.34571
304.1086
303.88858
303.68469
303.49606
303.32192
328.09614
323.79639
320.89552
318.71432
316.97048
315.52086
314.28316
313.20575
312.25416
311.40425
310.63843
309.94351
309.30934
308.72794
308.19292
307.69906
307.2421
306.81842
306.42503
306.05932
305.71907
305.40237
305.10753
304.83306
304.57765
304.34013
304.11946
303.91469
303.72496
303.54951
328.14049
323.87894
321.00376
318.84177
317.11315
315.67604
314.44884
313.38041
312.43656
311.59337
310.8334
310.14358
309.51386
308.93632
308.40463
307.91363
307.45908
307.03743
306.64567
306.28126
305.942
305.62597
305.33151
305.05715
304.8016
304.5637
304.3424
304.13679
303.94601
303.7693
328.18323
323.95848
321.10806
318.96458
317.25064
315.82558
314.60853
313.54876
312.61238
311.77568
311.02137
310.33649
309.71108
309.13728
308.60883
308.12061
307.66842
307.24874
306.85859
306.49546
306.15715
305.84179
305.54772
305.27349
305.01781
304.77955
304.55767
304.35125
304.15946
303.98154
328.22441
324.03513
321.20857
319.08294
317.38314
315.96972
314.76245
313.71103
312.78188
311.95145
311.20261
310.52251
309.90127
309.33111
308.8058
308.32028
307.87039
307.45262
307.06405
306.70216
306.3648
306.0501
305.75642
305.48232
305.22654
304.98794
304.7655
304.55831
304.36555
304.18645
328.2641
324.10901
321.30545
319.19702
317.51086
316.10865
314.91082
313.86748
312.94529
312.12092
311.37737
310.7019
310.0847
309.51805
308.99579
308.5129
308.06523
307.64934
307.2623
306.90164
306.5652
306.25115
305.95786
305.68391
305.42803
305.18911
304.96614
304.75821
304.56451
304.38429
328.30236
324.18022
321.39883
319.30698
317.63398
316.24259
315.05386
314.0183
313.10285
312.28433
311.54589
310.8749
310.2616
309.69837
309.17906
308.69872
308.25322
307.83914
307.4536
307.09413
306.7586
306.44519
306.15229
305.87848
305.62252
305.3833
305.15983
304.95119
304.75659
304.57528
328.33924
324.24887
321.48885
319.41299
317.75267
316.37171
315.19177
314.16372
313.25476
312.4419
311.70841
311.04173
310.43222
309.87229
309.35585
308.87797
308.43457
308.02227
307.63818
307.27987
306.94523
306.63245
306.33993
306.06628
305.81025
305.57075
305.34678
305.13747
304.942
304.75964
328.37479
324.31504
321.57563
319.51518
317.8671
316.4962
315.32474
314.30394
313.40125
312.59385
311.86513
311.20264
310.59678
310.04004
309.52637
309.05089
308.60953
308.19894
307.81627
307.45909
307.12532
306.81316
306.52102
306.24752
305.99143
305.75166
305.52723
305.31726
305.12096
304.93759
328.40907
324.37884
321.65929
319.61371
317.97743
316.61624
315.45294
314.43914
313.54251
312.74038
312.01627
311.35781
310.7555
310.20184
309.69087
309.21769
308.77832
308.3694
307.9881
307.63202
307.2991
306.98754
306.69577
306.42242
306.16628
305.92626
305.70139
305.49079
305.29368
305.10934
328.44211
324.44035
321.73995
319.70871
318.0838
316.73197
315.57656
314.56952
313.67872
312.88168
312.16203
311.50747
310.90858
310.35791
309.84953
309.3786
308.94115
308.53384
308.15388
307.79887
307.46677
307.1558
306.8644
306.59121
306.33502
306.09475
305.86946
305.65826
305.46038
305.27509
328.47397
324.49965
321.81773
319.8003
318.18637
316.84356
315.69577
314.69523
313.81008
313.01795
312.30259
311.65181
311.05622
310.50844
310.00258
309.53382
309.09822
308.69248
308.31381
307.95985
307.62855
307.31815
307.02711
306.75407
306.49784
306.25735
306.03165
305.81987
305.62124
305.43505
328.50468
324.55683
321.89271
319.88862
318.28526
316.95117
315.81071
314.81646
313.93674
313.14936
312.43816
311.79102
311.19862
310.65363
310.1502
309.68354
309.24974
308.84552
308.4681
308.11515
307.78462
307.47478
307.18409
306.91121
306.65495
306.41424
306.18815
305.97581
305.77646
305.5894
328.53429
324.61196
321.96501
319.97377
318.38062
317.05492
315.92154
314.93336
314.05889
313.27608
312.56889
311.92527
311.33596
310.79367
310.29258
309.82796
309.3959
308.99314
308.61694
308.26497
307.9352
307.6259
307.33556
307.06282
306.80653
306.56562
306.33915
306.12628
305.92624
305.73834
328.56284
324.66511
322.03472
320.05587
318.47256
317.15496
316.02841
315.04608
314.17668
313.39829
312.69497
312.05474
311.46841
310.92872
310.42991
309.96725
309.53687
309.13554
308.76052
308.40949
308.08045
307.77169
307.48167
307.20909
306.95277
306.71166
306.48484
306.27145
306.07074
305.88203
328.59035
324.71635
322.10193
320.13504
318.56121
317.25143
316.13146
315.15477
314.29026
313.51614
312.81655
312.1796
311.59614
311.05898
310.56236
310.1016
309.67285
309.27289
308.899
308.5489
308.22057
307.91232
307.62263
307.3502
307.09385
306.85256
306.62538
306.4115
306.21015
306.02066
328.61688
324.76576
322.16673
320.21136
318.64669
317.34444
316.23083
315.25958
314.39978
313.62977
312.93379
312.3
311.71932
311.18459
310.69009
310.23117
309.80399
309.40536
309.03258
308.68336
308.35572
308.04797
307.7586
307.48631
307.22994
306.98847
306.76097
306.54661
306.34464
306.15439
328.64245
324.81338
322.22921
320.28495
318.7291
317.43411
316.32663
315.36063
314.50538
313.73934
313.04684
312.41611
311.83811
311.30573
310.81327
310.35612
309.93046
309.53312
309.16141
308.81305
308.48608
308.17881
307.88975
307.6176
307.36122
307.11957
306.89175
306.67693
306.47437
306.28339
328.6671
324.8593
322.28944
320.35589
318.80855
317.52058
316.419
315.45807
314.60721
313.845
313.15585
312.52807
311.95265
311.42254
310.93206
310.47662
310.05243
309.65633
309.28565
308.93812
308.6118
308.305
308.01624
307.74423
307.48783
307.24602
307.01789
306.80263
306.59949
306.40781
328.69085
324.90356
322.3475
320.42429
318.88515
317.60393
316.50806
315.55201
314.70538
313.94686
313.26095
312.63601
312.0631
311.53517
311.0466
310.59281
310.17004
309.77514
309.40546
309.05874
308.73304
308.42669
308.13822
307.86635
307.60993
307.36797
307.13955
306.92386
306.72017
306.52781
328.71374
324.94622
322.40347
320.49022
318.95899
317.68429
316.59391
315.64257
314.80002
314.04507
313.36228
312.74009
312.16958
311.64377
311.15704
310.70485
310.28345
309.88971
309.52099
309.17505
308.84995
308.54404
308.25585
307.98411
307.72769
307.48557
307.25687
307.04077
306.83655
306.64354
328.7358
324.98734
322.45742
320.55378
319.03018
317.76175
316.67667
315.72987
314.89126
314.13975
313.45997
312.84043
312.27225
311.74847
311.26352
310.81287
310.39279
310.00017
309.63238
309.28719
308.96268
308.6572
308.36928
308.09767
307.84123
307.59897
307.37
307.1535
306.94877
306.75513
328.75706
325.02697
322.50942
320.61503
319.09879
317.83642
316.75645
315.81403
314.97922
314.23101
313.55415
312.93715
312.37122
311.8494
311.36617
310.91701
310.49821
310.10667
309.73978
309.39531
309.07137
308.7663
308.47865
308.20716
307.95071
307.70831
307.47908
307.2622
307.05697
306.86273
328.77754
325.06517
322.55953
320.67407
319.16492
317.90839
316.83334
315.89515
315.06399
314.31899
313.64492
313.03039
312.46662
311.9467
311.46512
311.0174
310.59983
310.20933
309.84331
309.49955
309.17615
308.87147
308.58408
308.31271
308.05626
307.81373
307.58424
307.367
307.16129
306.96647
328.79726
325.10197
322.60783
320.73097
319.22865
317.97775
316.90745
315.97333
315.1457
314.40378
313.73242
313.12026
312.55857
312.04048
311.5605
311.11416
310.69778
310.30829
309.94311
309.60003
309.27716
308.97286
308.68572
308.41447
308.158
307.91535
307.68562
307.46803
307.26186
307.06647
328.81626
325.13742
322.65436
320.7858
319.29007
318.04459
316.97887
316.04867
315.22445
314.48549
313.81674
313.20687
312.6472
312.13087
311.65243
311.20743
310.79219
310.40368
310.0393
309.69687
309.37451
309.07059
308.78368
308.51254
308.25608
308.0133
307.78334
307.56541
307.3588
307.16287
328.83456
325.17158
322.6992
320.83863
319.34924
318.109
317.04769
316.12127
315.30033
314.56424
313.89799
313.29034
312.7326
312.21798
311.74102
311.29731
310.88318
310.4956
310.132
309.79021
309.46834
309.16477
308.8781
308.60707
308.3506
308.10771
307.87752
307.65926
307.45223
307.25577
328.85217
325.20448
322.74239
320.88952
319.40626
318.17105
317.114
316.19123
315.37344
314.64011
313.97629
313.37076
312.81489
312.30191
311.82639
311.38391
310.97086
310.58418
310.22134
309.88015
309.55875
309.25554
308.96908
308.69817
308.44169
308.19868
307.96828
307.74971
307.54226
307.3453
328.86913
325.23617
322.78399
320.93855
319.46118
318.23083
317.17787
316.25862
315.44388
314.71321
314.05172
313.44824
312.89418
312.38278
311.90864
311.46736
311.05533
310.66953
310.30741
309.96681
309.64587
309.34299
309.05675
308.78594
308.52946
308.28634
308.05574
307.83686
307.62902
307.43157
328.88546
325.26669
322.82406
320.98577
319.51408
318.28842
317.23941
316.32353
315.51173
314.78363
314.12439
313.52288
312.97056
312.46068
311.98787
311.54775
311.13671
310.75175
310.39033
310.0503
309.72981
309.42724
309.14122
308.8705
308.61402
308.3708
308.13999
307.92083
307.7126
307.51469
328.90117
325.29607
322.86265
321.03125
319.56503
318.34388
317.29867
316.38606
315.57709
314.85145
314.19438
313.59478
313.04413
312.53572
312.06419
311.62519
311.2151
310.83095
310.47021
310.13072
309.81065
309.5084
309.22258
308.95196
308.69547
308.45216
308.22116
308.00171
307.79312
307.59476
328.91628
325.32436
322.8998
321.07504
319.6141
318.39728
317.35574
316.44627
315.64002
314.91677
314.26178
313.66402
313.11498
312.60799
312.1377
311.69976
311.2906
310.90723
310.54714
310.20818
309.88852
309.58657
309.30094
309.03042
308.77393
308.53052
308.29933
308.07961
307.87067
307.67188
328.93082
325.35159
322.93557
321.1172
319.66133
318.4487
317.41069
316.50425
315.70062
314.97966
314.32668
313.73069
313.18321
312.67758
312.20848
311.77157
311.3633
310.98069
310.62122
310.28277
309.96351
309.66185
309.3764
309.10597
308.84948
308.60598
308.37462
308.15464
307.94535
307.74614
328.94481
325.37779
322.96999
321.15778
319.7068
318.4982
317.46358
316.56006
315.75896
315.04021
314.38917
313.79488
313.24889
312.74458
312.27662
311.84072
311.4333
311.05141
310.69255
310.35459
310.0357
309.73432
309.44906
309.17872
308.92222
308.67863
308.4471
308.22687
308.01726
307.81764
328.95826
325.403
323.00312
321.19683
319.75057
318.54584
317.5145
316.61378
315.81512
315.09849
314.44931
313.85666
313.31212
312.80907
312.34222
311.90727
311.50068
311.11949
310.76121
310.42372
310.1052
309.80409
309.519
309.24874
308.99225
308.74857
308.51688
308.29641
308.08648
307.88648
328.97118
325.42725
323.03499
321.23441
319.79268
318.59169
317.56349
316.66548
315.86916
315.15457
314.5072
313.91612
313.37297
312.87114
312.40535
311.97132
311.56553
311.18501
310.82729
310.49025
310.17209
309.87124
309.58632
309.31614
309.05965
308.81589
308.58404
308.36333
308.1531
307.95273
328.98361
325.45057
323.06565
321.27056
319.83319
318.63579
317.61063
316.71522
315.92115
315.20854
314.56289
313.97334
313.43152
312.93086
312.4661
312.03296
311.62792
311.24805
310.89087
310.55428
310.23646
309.93585
309.6511
309.381
309.1245
308.88067
308.64866
308.42774
308.21721
308.01648
328.99555
325.473
323.09513
321.30533
319.87216
318.67822
317.65598
316.76306
315.97117
315.26045
314.61647
314.02838
313.48784
312.98831
312.52453
312.09225
311.68795
311.30871
310.95204
310.61587
310.29838
309.99801
309.71342
309.44339
309.18689
308.94299
308.71084
308.4897
308.27889
308.07782
329.00702
325.49455
323.12348
321.33876
319.90963
318.71902
317.69958
316.80908
316.01927
315.31038
314.66799
314.08131
313.54201
313.04356
312.58074
312.14928
311.74569
311.36704
311.01088
310.67511
310.35794
310.0578
309.77335
309.50341
309.24691
309.00293
308.77063
308.54929
308.33822
308.13681
329.01803
325.51527
323.15073
321.3709
319.94565
318.75824
317.7415
316.85331
316.06552
315.35838
314.71753
314.1322
313.5941
313.09669
312.63478
312.20411
311.8012
311.42313
311.06745
310.73207
310.4152
310.11529
309.83099
309.56111
309.30461
309.06056
308.82814
308.60659
308.39526
308.19354
329.0286
325.53517
323.17691
321.40179
319.98027
318.79593
317.7818
316.89584
316.10997
315.40451
314.76515
314.18112
313.64416
313.14776
312.68672
312.25682
311.85456
311.47705
311.12183
310.78683
310.47025
310.17056
309.88639
309.61658
309.36008
309.11597
308.88341
308.66168
308.4501
308.24807
329.03874
325.55428
323.20206
321.43146
320.01353
318.83215
317.82051
316.93669
316.15268
315.44885
314.81091
314.22813
313.69227
313.19684
312.73664
312.30747
311.90584
311.52886
311.17409
310.83945
310.52316
310.22367
309.93964
309.66989
309.41339
309.16921
308.93653
308.71462
308.5028
308.30047
329.04847
325.57263
323.22621
321.45995
320.04548
318.86694
317.8577
316.97594
316.19371
315.49144
314.85486
314.27329
313.73849
313.24398
312.7846
312.35613
311.95511
311.57864
311.2243
310.89
310.57398
310.27469
309.99079
309.72111
309.46461
309.22037
308.98757
308.76548
308.55343
308.35082
329.0578
325.59025
323.2494
321.48731
320.07615
318.90035
317.89341
317.01362
316.23311
315.53233
314.89707
314.31666
313.78287
313.28926
312.83065
312.40286
312.00242
311.62645
311.27251
310.93855
310.62279
310.32369
310.03991
309.77029
309.51379
309.26949
309.03658
308.81432
308.60205
308.39917
329.06674
325.60714
323.27164
321.51357
320.10559
318.93241
317.92769
317.0498
316.27093
315.57159
314.93759
314.35828
313.82547
313.33272
312.87486
312.44772
312.04783
311.67234
311.3188
310.98516
310.66964
310.37073
310.08707
309.81751
309.56101
309.31666
309.08363
308.86121
308.64873
308.44559
329.07531
325.62334
323.29298
321.53875
320.13383
318.96317
317.96057
317.0845
316.30722
315.60926
314.97647
314.39823
313.86635
313.37442
312.91728
312.49076
312.09142
311.71637
311.36321
311.02988
310.71461
310.41587
310.13233
309.86282
309.60632
309.36191
309.12879
308.90621
308.69352
308.49014
329.08351
325.63887
323.31344
321.5629
320.16091
318.99267
317.99211
317.11779
316.34202
315.64539
315.01376
314.43654
313.90556
313.41442
312.95797
312.53205
312.13322
311.75861
311.40582
311.07278
310.75774
310.45916
310.17573
309.90628
309.64978
309.40533
309.1721
308.94937
308.73649
308.53286
329.09136
325.65374
323.33305
321.58605
320.18687
319.02094
318.02234
317.14969
316.37538
315.68002
315.04951
314.47327
313.94315
313.45276
312.99698
312.57163
312.17329
311.79911
311.44666
311.11391
310.79909
310.50068
310.21735
309.94795
309.69145
309.44695
309.21362
308.99075
308.77769
308.57383
329.09887
325.66799
323.35182
321.60822
320.21174
319.04803
318.0513
317.18026
316.40734
315.7132
315.08376
314.50846
313.97917
313.48951
313.03436
312.60956
312.2117
311.83791
311.4858
311.15332
310.83871
310.54045
310.25723
309.98788
309.73138
309.48683
309.25341
309.03041
308.81716
308.61308
329.10604
325.68161
323.36979
321.62944
320.23555
319.07397
318.07903
317.20954
316.43795
315.74498
315.11656
314.54216
314.01366
313.5247
313.07015
312.64588
312.24847
311.87507
311.52328
311.19106
310.87665
310.57855
310.29542
310.02612
309.76963
309.52503
309.29152
309.06839
308.85497
308.65068
329.1129
325.69465
323.38698
321.64975
320.25833
319.09878
318.10557
317.23755
316.46724
315.77538
315.14795
314.57441
314.04668
313.55837
313.10441
312.68065
312.28367
311.91064
311.55916
311.22719
310.91297
310.61501
310.33198
310.06273
309.80623
309.56159
309.328
309.10474
308.89116
308.68667
329.11944
325.7071
323.40342
321.66916
320.28011
319.12252
318.13095
317.26434
316.49526
315.80447
315.17797
314.60526
314.07825
313.59058
313.13718
312.7139
312.31734
311.94466
311.59347
311.26174
310.94771
310.64989
310.36695
310.09774
309.84124
309.59656
309.36289
309.13951
308.92577
308.72109
329.12567
325.71899
323.41912
321.68771
320.30092
319.14519
318.1552
317.28994
316.52203
315.83226
315.20666
314.63474
314.10843
313.62137
313.1685
312.74568
312.34952
311.97718
311.62627
311.29476
310.98092
310.68322
310.40037
310.1312
309.87471
309.62999
309.39624
309.17274
308.95885
308.75399
329.13161
325.73033
323.4341
321.70542
320.32079
319.16684
318.17835
317.31438
316.54759
315.8588
315.23406
314.6629
314.13724
313.65077
313.1984
312.77603
312.38025
312.00823
311.65759
311.32631
311.01263
310.71506
310.43229
310.16316
309.90667
309.66191
309.42809
309.20449
308.99045
308.78541
329.13727
325.74115
323.44839
321.7223
320.33974
319.1875
318.20044
317.33771
316.57198
315.88413
315.26021
314.68976
314.16474
313.67882
313.22694
312.80499
312.40957
312.03786
311.68748
311.3564
311.04289
310.74544
310.46275
310.19366
309.93717
309.69238
309.45848
309.23478
309.02061
308.8154
329.14264
325.75145
323.46199
321.73839
320.3578
319.20718
318.2215
317.35994
316.59523
315.90827
315.28513
314.71537
314.19095
313.70557
313.25415
312.8326
312.43753
312.06611
311.71598
311.3851
311.07174
310.77441
310.49179
310.22274
309.96625
309.72142
309.48746
309.26365
309.04936
308.84398
329.14775
325.76124
323.47495
321.75371
320.37499
319.22592
318.24154
317.3811
316.61737
315.93125
315.30886
314.73975
314.21591
313.73103
313.28006
312.85889
312.46415
312.09302
311.74311
311.41243
311.09922
310.80199
310.51944
310.25043
309.99394
309.74908
309.51506
309.29116
309.07673
308.87121
329.15259
325.77054
323.48726
321.76827
320.39134
319.24374
318.26061
317.40123
316.63842
315.95311
315.33143
314.76295
314.23966
313.75526
313.3047
312.8839
312.48948
312.11861
311.76893
311.43842
311.12535
310.82823
310.54575
310.27677
310.02028
309.7754
309.54131
309.31732
309.10278
308.89711
329.15717
325.77937
323.49894