/*--------------------------------*- C++ -*----------------------------------*\
| =========                 |                                                 |
| \\      /  F ield         | OpenFOAM: The Open Source CFD Toolbox           |
|  \\    /   O peration     | Version:  2506                                  |
|   \\  /    A nd           | Website:  www.openfoam.com                      |
|    \\/     M anipulation  |                                                 |
\*---------------------------------------------------------------------------*/
FoamFile
{
    version     2.0;
    format      ascii;
    arch        "LSB;label=32;scalar=64";
    class       volScalarField;
    location    "26000/water";
    object      alphat;
}
// * * * * * * * * * * * * * * * * * * * * * * * * * * * * * * * * * * * * * //

dimensions      [1 -1 -1 0 0 0 0];

internalField   nonuniform List<scalar> 
6000
(
0.041292847
0.041292824
0.041292831
0.041292856
0.041292889
0.041292932
0.041292983
0.041293016
0.041292808
0.041290571
0.041271537
0.041111294
0.0397723
0.030564074
0.013464793
0.040788543
0.040788537
0.040788576
0.040788654
0.040788758
0.040788888
0.04078902
0.040788972
0.040787494
0.040776037
0.040696382
0.040161217
0.036863805
0.023766469
0.015141611
0.04033569
0.040335696
0.040335761
0.040335884
0.040336044
0.040336229
0.04033633
0.040335685
0.040330323
0.040296649
0.040097616
0.038983223
0.033614213
0.0194951
0.016360294
0.039926215
0.039926219
0.039926301
0.039926459
0.03992666
0.039926848
0.039926701
0.039924457
0.039910659
0.039835636
0.039448738
0.037597438
0.030384627
0.016783057
0.017196555
0.039553796
0.039553808
0.039553906
0.039554093
0.039554312
0.039554413
0.039553622
0.0395481
0.039519187
0.039379112
0.038737841
0.036066498
0.027427863
0.015063192
0.01773179
0.039213273
0.039213296
0.039213408
0.039213613
0.039213809
0.039213657
0.039211571
0.039200298
0.039147643
0.038916647
0.037965398
0.034462847
0.024852826
0.013984463
0.018040007
0.038900366
0.038900399
0.038900521
0.038900723
0.038900826
0.038900159
0.038895819
0.03887551
0.038788999
0.038441492
0.037140256
0.032849727
0.022675913
0.013336844
0.018183117
0.038611532
0.038611573
0.038611697
0.038611866
0.038611765
0.038610199
0.038602307
0.038568928
0.038437606
0.037950377
0.036275872
0.031274836
0.020870828
0.012994967
0.018210197
0.038343817
0.038343862
0.038343975
0.038344065
0.038343601
0.038340605
0.038327517
0.03827644
0.038089201
0.037442856
0.03538704
0.029770034
0.019396999
0.012882914
0.018158676
0.038094736
0.03809478
0.038094862
0.038094803
0.038093753
0.038088644
0.038068396
0.037994592
0.037740813
0.036920505
0.03448763
0.028354169
0.018213448
0.012953916
0.018056304
0.037862183
0.037862216
0.037862238
0.037861935
0.037860009
0.037851941
0.037822294
0.037720559
0.037390607
0.036386134
0.033589398
0.02703684
0.017284481
0.013178532
0.017923231
0.03764436
0.037644371
0.037644291
0.037643618
0.037640447
0.037628426
0.037586933
0.037452106
0.037037684
0.035843147
0.032701562
0.025821837
0.016581272
0.013537499
0.017773886
0.037439726
0.037439699
0.03743946
0.037438254
0.037433393
0.037416287
0.037360374
0.037187532
0.036681868
0.035295042
0.031830871
0.02470985
0.016081614
0.014017191
0.017618497
0.037246949
0.037246861
0.037246392
0.037244452
0.037237378
0.037213943
0.037140989
0.036925609
0.0363235
0.034745073
0.030981931
0.023700436
0.015768976
0.014606606
0.017464261
0.037064871
0.037064693
0.037063903
0.037060987
0.037051109
0.037020016
0.036927437
0.036665512
0.035963258
0.03419604
0.030157673
0.022793377
0.015631332
0.015295285
0.017316197
0.03689248
0.036892177
0.036890955
0.036886782
0.036873442
0.036833316
0.036718634
0.03640675
0.035602004
0.033650187
0.029359858
0.021989538
0.015659917
0.016071914
0.01717775
0.036728885
0.036728414
0.036726628
0.036720878
0.03670337
0.036652818
0.036513731
0.036149096
0.035240656
0.033109157
0.028589603
0.021291346
0.015847992
0.016923492
0.017051196
0.036573301
0.03657261
0.036570106
0.036562424
0.036540005
0.036477653
0.03631208
0.035892529
0.034880099
0.032574024
0.027847913
0.02070292
0.016189617
0.01783505
0.016937916
0.036425028
0.036424056
0.036420663
0.036410663
0.036382564
0.036307092
0.036113215
0.03563717
0.034521109
0.032045349
0.027136212
0.020229918
0.016678486
0.018789895
0.016838558
0.036283441
0.03628212
0.036277645
0.036264917
0.036230367
0.036140535
0.03591682
0.035383242
0.034164308
0.031523285
0.026456862
0.019879123
0.017306891
0.019770317
0.016753165
0.036147982
0.036146234
0.036140468
0.036124584
0.036082821
0.035977497
0.035722708
0.035131018
0.033810124
0.031007717
0.025813646
0.019657797
0.018064912
0.0207586
0.016681265
0.036018143
0.036015885
0.036008605
0.035989127
0.035939416
0.035817597
0.035530799
0.034880794
0.033458783
0.030498445
0.025212142
0.019572905
0.018939949
0.021738147
0.016621966
0.03589347
0.03589061
0.035881581
0.035858069
0.035799718
0.035660549
0.035341095
0.034632853
0.033110301
0.029995409
0.024659951
0.019630248
0.019916664
0.02269449
0.016574063
0.035773545
0.035769987
0.035758968
0.035730991
0.035663366
0.035506152
0.035153669
0.034387441
0.032764498
0.029498968
0.024166686
0.019833637
0.020977366
0.023616003
0.016536152
0.035657992
0.035653635
0.035640383
0.035607524
0.035530063
0.035354279
0.034968643
0.03414475
0.03242103
0.029010211
0.023743688
0.020184173
0.022102784
0.024494228
0.016506745
0.035546464
0.035541207
0.035525479
0.03548735
0.035399574
0.035204869
0.034786172
0.033904896
0.032079439
0.028531301
0.023403466
0.020679733
0.023273104
0.025323802
0.016484372
0.035438647
0.035432386
0.035413948
0.035370193
0.035271718
0.035057919
0.034606436
0.03366791
0.03173923
0.028065808
0.023158914
0.021314706
0.0244691
0.026102089
0.016467662
0.035334251
0.035326887
0.035305516
0.035255823
0.03514637
0.034913479
0.03442962
0.033433727
0.031399978
0.02761899
0.023022388
0.022080016
0.025673169
0.026828633
0.016455398
0.035233012
0.035224448
0.035199939
0.03514405
0.035023453
0.034771643
0.034255909
0.033202186
0.031061475
0.027197981
0.02300477
0.022963452
0.026870127
0.027504567
0.016446544
0.035134691
0.035124836
0.035097009
0.035034724
0.034902936
0.03463254
0.03408547
0.032973033
0.030723902
0.0268118
0.023114633
0.023950249
0.02804767
0.028132079
0.016440248
0.035039067
0.035027841
0.034996542
0.034927732
0.034784832
0.034496333
0.033918446
0.032745938
0.030388047
0.026471168
0.023357597
0.025023883
0.02919649
0.028713982
0.016435834
0.034945943
0.034933275
0.034898386
0.034822996
0.034669194
0.034363211
0.033754944
0.032520522
0.030055535
0.026188099
0.023735915
0.026166982
0.030310099
0.029253407
0.016432778
0.034855141
0.034840974
0.034802418
0.034720475
0.034556112
0.034233382
0.033595029
0.032296402
0.029729078
0.025975302
0.024248334
0.02736225
0.031384439
0.029753594
0.016430685
0.034766502
0.034750797
0.03470854
0.034620164
0.034445715
0.034107066
0.033438713
0.032073259
0.029412693
0.025845435
0.02489019
0.028593298
0.032417398
0.030217765
0.016429265
0.034679887
0.034662624
0.034616684
0.034522088
0.034338162
0.033984492
0.033285952
0.031850929
0.029111867
0.025810314
0.025653732
0.029845306
0.033408314
0.030649046
0.016428312
0.034595176
0.034576356
0.034526808
0.034426308
0.034233647
0.033865888
0.033136649
0.03162952
0.028833634
0.02588017
0.02652862
0.031105458
0.03435753
0.03105041
0.016427682
0.034512269
0.034491917
0.034438897
0.034332917
0.034132389
0.033751478
0.032990657
0.031409556
0.028586515
0.026063011
0.027502555
0.032363145
0.035266042
0.031424648
0.01642728
0.034431083
0.034409252
0.034352965
0.034242042
0.034034637
0.033641469
0.032847794
0.031192143
0.028380316
0.026364177
0.02856198
0.033609949
0.036135249
0.031774347
0.016427047
0.034351558
0.034328331
0.034269052
0.034153841
0.033940664
0.03353605
0.032707869
0.030979151
0.02822576
0.026786092
0.02969279
0.034839474
0.036966771
0.032101875
0.01642695
0.034273652
0.034249145
0.03418723
0.034068505
0.03385076
0.033435383
0.03257072
0.030773393
0.028133999
0.027328222
0.030880995
0.036047068
0.037762344
0.032409381
0.016426974
0.034197344
0.03417171
0.034107598
0.033986257
0.033765237
0.033339598
0.032436275
0.030578782
0.028116033
0.027987226
0.032113286
0.037229503
0.038523755
0.032698799
0.016427117
0.034122637
0.034096065
0.034030285
0.033907355
0.033684417
0.033248788
0.032304627
0.030400435
0.028182108
0.028757251
0.033377461
0.038384662
0.039252794
0.032971855
0.016427382
0.034049553
0.034022276
0.033955452
0.033832084
0.033608631
0.033163012
0.03217613
0.030244714
0.02834114
0.029630359
0.034662707
0.039511264
0.039951226
0.033230085
0.016427779
0.03397814
0.033950437
0.033883292
0.033760766
0.033538214
0.033082299
0.032051523
0.030119153
0.028600247
0.03059702
0.035959726
0.040608638
0.040620775
0.033474855
0.016428318
0.033908471
0.033880668
0.033814033
0.033693749
0.033473497
0.033006661
0.03193206
0.030032289
0.028964394
0.031646649
0.037260741
0.041676555
0.041263097
0.033707371
0.01642901
0.033840644
0.033813121
0.033747936
0.033631414
0.033414804
0.032936114
0.03181966
0.029993367
0.029436208
0.032768126
0.038559401
0.042715104
0.041879776
0.033928703
0.016429865
0.033774787
0.03374798
0.033685299
0.033574167
0.033362441
0.032870716
0.031717042
0.030011958
0.030015929
0.033950279
0.039850624
0.043724608
0.042472311
0.0341398
0.016430891
0.033711057
0.03368546
0.033626458
0.03352244
0.033316699
0.032810614
0.031627851
0.030097516
0.030701519
0.035182296
0.041130411
0.04470556
0.043042111
0.0343415
0.016432097
0.033649643
0.033625814
0.033571787
0.033476689
0.033277844
0.032756112
0.031556732
0.0302589
0.031488873
0.03645404
0.04239566
0.045658584
0.043590496
0.034534552
0.016433487
0.03359077
0.033569333
0.033521698
0.033437387
0.03324612
0.032707755
0.031509355
0.030503935
0.03237214
0.037756264
0.043643993
0.046584394
0.044118699
0.034719618
0.016435064
0.033534699
0.033516348
0.033476647
0.033405019
0.033221753
0.032666432
0.031492357
0.030839025
0.033344086
0.039080734
0.044873612
0.047483771
0.044627865
0.03489729
0.016436831
0.033481731
0.033467235
0.033437127
0.033380083
0.033204961
0.032633491
0.031513196
0.031268865
0.034396492
0.040420266
0.046083178
0.048357536
0.045119062
0.035068098
0.016438788
0.033432211
0.033422413
0.033403675
0.033363077
0.033195978
0.032610856
0.031579924
0.031796267
0.035520558
0.041768693
0.047271721
0.049206535
0.045593281
0.035232517
0.016440933
0.033386531
0.033382352
0.033376864
0.033354498
0.033195078
0.032601152
0.031700874
0.032422095
0.036707261
0.043120794
0.048438568
0.050031619
0.046051442
0.035390971
0.016443266
0.033345134
0.033347573
0.03335731
0.033354836
0.033202629
0.032607795
0.031884311
0.033145324
0.037947682
0.044472187
0.049583287
0.050833637
0.046494401
0.035543847
0.016445782
0.033308518
0.033318652
0.033345661
0.033364572
0.033219144
0.032635064
0.032138047
0.033963185
0.039233258
0.045819228
0.050705643
0.051613424
0.046922954
0.035691491
0.016448478
0.033277237
0.03329622
0.033342602
0.033384175
0.033245365
0.032688114
0.032469076
0.034871389
0.040555973
0.047158896
0.051805562
0.052371796
0.04733784
0.035834219
0.016451351
0.033251914
0.033280969
0.033348845
0.033414107
0.033282347
0.032772921
0.032883252
0.035864404
0.041908476
0.048488702
0.0528831
0.053109545
0.047739746
0.035972318
0.016454394
0.033233235
0.033273652
0.033365129
0.033454837
0.033331566
0.03289617
0.033385038
0.036935763
0.043284142
0.049806603
0.053938416
0.053827438
0.048129314
0.03610605
0.016457603
0.033221962
0.033275083
0.033392211
0.033506853
0.033395019
0.033065054
0.033977338
0.038078366
0.044677085
0.051110932
0.054971752
0.054526213
0.048507139
0.036235654
0.016460973
0.033218935
0.033286139
0.033430865
0.033570698
0.033475334
0.033287025
0.034661424
0.039284779
0.046082129
0.052400338
0.055983413
0.05520658
0.048873777
0.036361352
0.016464499
0.033225073
0.033307763
0.033481872
0.03364701
0.033575848
0.033569488
0.035436954
0.040547493
0.047494761
0.053673742
0.056973751
0.055869222
0.049229751
0.036483351
0.016468173
0.033241386
0.033340956
0.033546022
0.03373658
0.033700664
0.033919482
0.036302071
0.04185914
0.04891107
0.054930293
0.05794315
0.056514768
0.049575441
0.036601081
0.01647199
0.033268972
0.033386781
0.033624113
0.033840423
0.033854657
0.03434337
0.037253566
0.043212665
0.050327679
0.05616933
0.058892014
0.057143812
0.049911245
0.036714879
0.016475942
0.033309024
0.033446356
0.033716955
0.033959864
0.034043428
0.03484655
0.038287089
0.044601438
0.051741681
0.057390353
0.059820759
0.057756923
0.050237565
0.036825049
0.016480019
0.03336283
0.033520853
0.033825378
0.034096633
0.034273193
0.035433235
0.039397395
0.046019335
0.05315058
0.058593
0.060729812
0.058354654
0.050554811
0.036931858
0.016484214
0.033431776
0.033611492
0.03395026
0.034252961
0.034550606
0.036106296
0.040578585
0.047460766
0.054552241
0.059777021
0.061619602
0.058937479
0.050862943
0.037035592
0.016488518
0.033517344
0.033719534
0.034092552
0.034431674
0.034882535
0.036867181
0.041824356
0.048920683
0.05594484
0.060942261
0.062490548
0.05950584
0.051162175
0.03713641
0.016492924
0.033621115
0.033846283
0.034253327
0.034636261
0.035275788
0.037715916
0.043128214
0.050394562
0.057326828
0.06208864
0.063343069
0.060060194
0.051453007
0.037234399
0.016497426
0.033744758
0.03399308
0.034433839
0.034870918
0.035736836
0.038651169
0.044483672
0.051878369
0.05869689
0.063216145
0.064177582
0.060601001
0.051735874
0.037329668
0.01650202
0.033890034
0.034161309
0.034635594
0.035140542
0.036271524
0.039670385
0.045884395
0.053368529
0.06005392
0.064324815
0.064994492
0.061128593
0.052011181
0.037422344
0.016506701
0.034058785
0.034352403
0.03486044
0.035450676
0.036884827
0.040769952
0.047324317
0.054861876
0.061396994
0.06541473
0.065794148
0.061642955
0.052279315
0.037512572
0.016511468
0.034252933
0.034567867
0.035110657
0.035807385
0.037580641
0.041945402
0.048797724
0.056355621
0.062725338
0.066486
0.066576915
0.062144659
0.052540482
0.037600456
0.016516318
0.034474474
0.034809304
0.035389049
0.036217092
0.038361644
0.043191619
0.050299295
0.057847309
0.06403831
0.06753876
0.067343175
0.062634216
0.052794902
0.037686084
0.016521247
0.034725477
0.035078457
0.035699021
0.036686346
0.039229217
0.044503048
0.051824129
0.059334781
0.065335385
0.068573179
0.068093331
0.063112087
0.053042805
0.037769534
0.016526253
0.035008093
0.035377273
0.036044636
0.037221574
0.040183442
0.045873888
0.053367741
0.060816147
0.066616139
0.069589402
0.068827281
0.063578737
0.053284443
0.037850902
0.016531331
0.035324563
0.035707969
0.036430628
0.037828808
0.041223159
0.047298253
0.054926057
0.062289753
0.067880218
0.070587585
0.069545508
0.064034476
0.053520026
0.037930276
0.016536478
0.035677251
0.036073121
0.036862371
0.038513429
0.042346073
0.048770319
0.056495384
0.063754146
0.069127338
0.07156792
0.070248486
0.064479605
0.053749741
0.038007732
0.016541691
0.036068677
0.036475753
0.037345789
0.039279937
0.043548903
0.050284423
0.058072391
0.065208056
0.070357274
0.072530636
0.070936653
0.064914423
0.053973768
0.038083336
0.016546967
0.036501576
0.036919423
0.037887205
0.040131769
0.044827559
0.051835147
0.059654082
0.066650383
0.071569845
0.073475582
0.071610392
0.065339229
0.054192299
0.03815715
0.016552302
0.036978966
0.037408296
0.038493143
0.041071178
0.046177323
0.053417368
0.06123776
0.068080149
0.072764881
0.074403061
0.072270054
0.065754287
0.054405511
0.038229235
0.016557693
0.03750423
0.037947181
0.039170079
0.04209917
0.047593033
0.055026286
0.062820998
0.069496491
0.073942269
0.0753134
0.072915957
0.066159846
0.054613564
0.038299646
0.016563137
0.038081198
0.038541534
0.039924185
0.043215515
0.049069253
0.056657436
0.064401619
0.070898656
0.075101867
0.076206877
0.073548398
0.066556148
0.054816605
0.038368433
0.016568629
0.038714221
0.03919739
0.040761057
0.044418807
0.050600421
0.05830669
0.065977672
0.072285972
0.076243464
0.077083739
0.074167653
0.066943433
0.055014773
0.038435642
0.016574168
0.039408223
0.039921241
0.041685475
0.045706573
0.052180974
0.059970242
0.067547387
0.073657815
0.077367079
0.077944288
0.074773981
0.067321923
0.055208202
0.038501314
0.016579749
0.040168703
0.040719849
0.042701195
0.047075418
0.053805449
0.061644589
0.069109157
0.075013647
0.078472795
0.078788774
0.075367632
0.067691823
0.055397012
0.038565488
0.016585369
0.04100168
0.041599997
0.043810803
0.048521189
0.055468558
0.063326537
0.070661573
0.076352863
0.079560535
0.079617397
0.075948853
0.068053325
0.055581317
0.038628196
0.016591025
0.04191357
0.042568204
0.045015627
0.050039148
0.057165237
0.06501314
0.072203283
0.077674989
0.080630486
0.080430355
0.076517875
0.068406613
0.055761222
0.038689472
0.016596714
0.04291098
0.043630418
0.046315717
0.051624136
0.058890673
0.066701679
0.07373306
0.078979709
0.081682774
0.081227841
0.077074909
0.068751856
0.055936822
0.038749341
0.016602432
0.044000425
0.044791717
0.047709877
0.053270731
0.060640345
0.068389711
0.075249756
0.08026654
0.082717442
0.082010047
0.077620157
0.069089211
0.056108207
0.03880783
0.016608176
0.045187998
0.046056035
0.049195754
0.054973376
0.062409993
0.07007491
0.076752263
0.081535385
0.083734542
0.082777148
0.078153807
0.069418825
0.056275459
0.03886496
0.016613943
0.046478997
0.04742594
0.050769961
0.056726488
0.064195618
0.071755124
0.078239634
0.08278611
0.084734138
0.083529309
0.078676033
0.069740834
0.056438653
0.038920752
0.01661973
0.047877559
0.04890248
0.052428226
0.058524561
0.06599353
0.073428376
0.079710842
0.084018489
0.085716288
0.08426668
0.079186998
0.070055362
0.056597858
0.038975223
0.016625532
0.049386323
0.050485088
0.054165538
0.060362189
0.067800179
0.075092708
0.081165398
0.085232338
0.086681041
0.0849894
0.07968685
0.070362525
0.056753136
0.039028388
0.016631349
0.051006167
0.052171579
0.055976315
0.06223417
0.069612306
0.076746169
0.082602679
0.086427481
0.087628438
0.085697595
0.080175725
0.070662427
0.056904544
0.03908026
0.016637175
0.052736029
0.053958196
0.057854515
0.064135412
0.071426689
0.078387374
0.084022078
0.087603746
0.088558509
0.086391377
0.080653748
0.070955166
0.057052133
0.039130852
0.016643008
0.054572851
0.055839733
0.059793796
0.066061039
0.073240108
0.080015036
0.085423029
0.08876096
0.089471273
0.087070844
0.08112103
0.071240828
0.057195951
0.039180173
0.016648845
0.056511616
0.057809674
0.061787515
0.068006146
0.075050003
0.081627908
0.086804983
0.089898943
0.090366733
0.087736078
0.081577667
0.071519489
0.057336037
0.03922823
0.016654683
0.058545508
0.059860379
0.063828828
0.069965959
0.076854019
0.083224808
0.088167406
0.091017508
0.091244878
0.088387143
0.082023745
0.071791218
0.057472428
0.039275031
0.016660518
0.060666095
0.061983169
0.065910617
0.071936336
0.078649921
0.084804603
0.089509777
0.092116458
0.092105679
0.089024089
0.082459332
0.072056071
0.057605154
0.039320579
0.016666349
0.062863528
0.064168682
0.068026081
0.073913292
0.080435577
0.086366207
0.090831572
0.093195579
0.092949086
0.089646945
0.082884483
0.072314097
0.057734239
0.039364878
0.016672171
0.065127003
0.066407165
0.070168471
0.075892982
0.082208952
0.087908566
0.092132271
0.094254641
0.09377503
0.090255719
0.083299236
0.072565331
0.057859701
0.039407927
0.016677982
0.067445137
0.068688652
0.072331121
0.077871687
0.083968083
0.089430652
0.093411346
0.095293395
0.094583416
0.090850401
0.083703614
0.072809797
0.057981553
0.039449725
0.016683778
0.069806316
0.07100316
0.07450749
0.079845804
0.085711074
0.090931458
0.094668263
0.096311572
0.095374128
0.091430957
0.08409762
0.073047509
0.058099799
0.039490267
0.016689557
0.072199006
0.073340869
0.076691191
0.081811831
0.087436084
0.092409994
0.095902477
0.097308879
0.096147023
0.091997329
0.084481239
0.073278465
0.058214437
0.039529547
0.016695315
0.074612005
0.075692271
0.078876033
0.083766371
0.08914132
0.093865281
0.097113435
0.098285005
0.096901934
0.092549437
0.08485444
0.073502652
0.058325458
0.039567553
0.016701048
0.077034653
0.078048301
0.081056051
0.085706123
0.090825031
0.095296352
0.098300574
0.099239616
0.09763867
0.09308718
0.085217169
0.073720042
0.058432842
0.039604274
0.016706753
0.079456973
0.080400431
0.083225547
0.087627891
0.092485507
0.096702251
0.099463323
0.10017236
0.098357017
0.093610431
0.085569357
0.073930595
0.058536565
0.039639693
0.016712427
0.081869778
0.082740742
0.085379123
0.089528592
0.094121081
0.098082035
0.10060111
0.10108287
0.099056741
0.094119046
0.085910914
0.074134257
0.058636593
0.039673789
0.016718065
0.084264726
0.085061976
0.087511709
0.091405264
0.09573013
0.099434778
0.10171335
0.10197077
0.099737589
0.094612858
0.086241736
0.074330962
0.058732883
0.039706541
0.016723663
0.086634339
0.087357552
0.089618588
0.093255085
0.097311087
0.10075958
0.10279949
0.10283568
0.1003993
0.095091688
0.086561703
0.074520631
0.058825388
0.039737922
0.016729217
0.088971998
0.089621581
0.091695418
0.09507538
0.098862439
0.10205555
0.10385897
0.10367721
0.10104159
0.095555344
0.086870682
0.074703177
0.058914052
0.039767903
0.016734721
0.091271914
0.091848847
0.09373824
0.096863643
0.10038275
0.10332187
0.10489123
0.10449498
0.1016642
0.096003624
0.087168532
0.074878503
0.058998815
0.039796455
0.016740172
0.093529089
0.094034792
0.09574349
0.098617545
0.10187065
0.10455771
0.10589578
0.10528862
0.10226684
0.096436322
0.087455104
0.075046506
0.059079612
0.039823544
0.016745564
0.095739264
0.096175483
0.097707996
0.10033495
0.10332487
0.10576234
0.10687211
0.10605779
0.10284925
0.096853236
0.087730246
0.075207081
0.059156375
0.039849135
0.016750891
0.097898865
0.098267574
0.099628976
0.10201391
0.10474422
0.10693505
0.10781979
0.10680215
0.10341117
0.097254168
0.087993809
0.07536012
0.059229035
0.039873195
0.016756148
0.10000494
0.10030827
0.10150402
0.1036527
0.10612765
0.10807521
0.10873841
0.10752143
0.10395239
0.097638931
0.088245647
0.075505516
0.059297522
0.039895688
0.016761329
0.10205511
0.10229528
0.1033311
0.1052498
0.10747418
0.10918226
0.10962762
0.10821536
0.10447268
0.098007354
0.088485622
0.075643168
0.059361771
0.039916581
0.016766428
0.10404749
0.10422676
0.1051085
0.1068039
0.10878298
0.1102557
0.11048711
0.10888373
0.10497187
0.098359288
0.088713612
0.07577298
0.059421717
0.039935842
0.01677144
0.10598069
0.10610133
0.10683486
0.10831388
0.11005332
0.11129513
0.11131666
0.10952637
0.10544983
0.098694607
0.088929507
0.075894867
0.059477302
0.039953441
0.016776358
0.10785368
0.10791793
0.10850913
0.10977885
0.11128462
0.11230021
0.11211607
0.11014317
0.10590646
0.099013215
0.089133219
0.076008757
0.059528476
0.039969352
0.016781177
0.10966582
0.10967589
0.11013052
0.1111981
0.11247639
0.11327069
0.11288523
0.11073406
0.10634169
0.099315046
0.089324682
0.07611459
0.059575196
0.039983553
0.016785891
0.11141678
0.11137481
0.1116985
0.11257113
0.1136283
0.11420641
0.11362409
0.11129902
0.1067555
0.099600069
0.089503852
0.076212324
0.059617429
0.039996024
0.016790494
0.11310651
0.11301456
0.11321279
0.11389758
0.11474011
0.11510728
0.11433266
0.11183809
0.10714793
0.099868288
0.089670714
0.076301933
0.059655151
0.040006754
0.01679498
0.11473517
0.11459525
0.11467332
0.11517729
0.1158117
0.11597331
0.11501101
0.11235138
0.10751905
0.10011974
0.089825279
0.076383412
0.059688353
0.040015735
0.016799345
0.11630316
0.11611719
0.1160802
0.11641024
0.11684307
0.11680457
0.11565929
0.11283901
0.10786898
0.10035451
0.089967585
0.076456773
0.059717036
0.040022963
0.016803584
0.11781103
0.11758085
0.1174337
0.11759654
0.11783433
0.11760122
0.11627767
0.11330119
0.10819787
0.1005727
0.090097699
0.076522051
0.059741212
0.040028444
0.016807692
0.11925948
0.11898687
0.11873425
0.11873644
0.11878565
0.11836346
0.11686642
0.11373816
0.10850592
0.10077446
0.090215717
0.076579299
0.059760909
0.040032187
0.016811664
0.12064934
0.12033598
0.11998241
0.11983029
0.11969732
0.1190916
0.11742583
0.1141502
0.10879339
0.10095997
0.090321762
0.076628591
0.059776165
0.040034207
0.016815496
0.12198153
0.12162905
0.12117882
0.12087856
0.12056971
0.11978597
0.11795625
0.11453763
0.10906054
0.10112945
0.090415981
0.076670021
0.059787033
0.040034526
0.016819186
0.12325703
0.122867
0.12232423
0.12188177
0.12140323
0.12044697
0.11845807
0.11490084
0.1093077
0.10128314
0.090498551
0.076703702
0.059793576
0.040033171
0.016822731
0.12447693
0.12405084
0.12341947
0.12284056
0.12219839
0.12107506
0.11893173
0.11524021
0.10953519
0.10142132
0.09056967
0.076729764
0.059795871
0.040030176
0.016826126
0.12564233
0.12518163
0.12446543
0.1237556
0.12295574
0.12167073
0.11937768
0.11555617
0.10974341
0.10154429
0.090629558
0.076748358
0.059794004
0.040025578
0.016829371
0.12675439
0.12626046
0.12546303
0.12462764
0.12367587
0.12223451
0.11979644
0.1158492
0.10993275
0.10165236
0.090678459
0.076759647
0.059788074
0.040019419
0.016832464
0.12781428
0.12728846
0.12641327
0.12545745
0.12435943
0.12276698
0.12018854
0.11611976
0.11010362
0.10174589
0.090716635
0.076763812
0.059778189
0.040011748
0.016835402
0.12882321
0.12826679
0.12731714
0.12624588
0.12500711
0.12326874
0.12055451
0.11636838
0.11025649
0.10182525
0.090744365
0.076761049
0.059764468
0.040002616
0.016838187
0.1297824
0.12919663
0.1281757
0.12699376
0.12561961
0.12374041
0.12089496
0.11659557
0.1103918
0.1018908
0.090761947
0.076751566
0.059747035
0.039992079
0.016840816
0.13069308
0.13007916
0.12899
0.127702
0.12619768
0.12418265
0.12121045
0.11680188
0.11051005
0.10194297
0.090769691
0.076735584
0.059726028
0.039980196
0.01684329
0.13155649
0.13091559
0.12976113
0.12837151
0.12674208
0.12459613
0.12150163
0.11698787
0.11061172
0.10198216
0.090767924
0.076713334
0.059701586
0.039967029
0.016845609
0.13237388
0.13170711
0.13049017
0.12900321
0.12725362
0.12498155
0.1217691
0.11715412
0.11069733
0.1020088
0.090756982
0.076685059
0.05967386
0.039952643
0.016847775
0.13314651
0.13245496
0.13117823
0.12959807
0.12773309
0.12533962
0.12201353
0.11730121
0.11076739
0.10202333
0.090737215
0.07665101
0.059643004
0.039937106
0.016849788
0.13387563
0.13316036
0.13182644
0.13015704
0.12818133
0.12567106
0.12223556
0.11742974
0.11082243
0.1020262
0.090708981
0.076611446
0.05960918
0.039920487
0.016851651
0.13456251
0.13382452
0.13243592
0.13068111
0.12859917
0.12597662
0.12243586
0.11754031
0.110863
0.10201788
0.090672646
0.076566635
0.059572551
0.039902859
0.016853365
0.13520843
0.13444869
0.1330078
0.13117128
0.12898748
0.12625704
0.12261512
0.11763355
0.11088964
0.10199882
0.090628584
0.076516847
0.059533286
0.039884293
0.016854933
0.13581465
0.1350341
0.13354322
0.13162854
0.12934713
0.1265131
0.12277402
0.11771007
0.1109029
0.1019695
0.090577176
0.076462363
0.059491558
0.039864864
0.016856357
0.13638245
0.13558199
0.13404334
0.13205391
0.12967899
0.12674557
0.12291326
0.1177705
0.11090335
0.1019304
0.090518808
0.076403462
0.059447541
0.039844647
0.01685764
0.13691311
0.1360936
0.1345093
0.13244842
0.12998396
0.12695522
0.12303353
0.11781547
0.11089154
0.10188201
0.090453867
0.076340431
0.059401411
0.039823716
0.016858787
0.13740791
0.13657018
0.13494226
0.13281309
0.13026293
0.12714287
0.12313554
0.11784562
0.11086805
0.10182479
0.090382745
0.076273556
0.059353346
0.039802147
0.016859801
0.13786811
0.13701296
0.13534336
0.13314895
0.13051681
0.12730928
0.12322002
0.1178616
0.11083343
0.10175925
0.090305834
0.076203124
0.059303522
0.039780014
0.016860685
0.13829499
0.13742317
0.13571378
0.13345704
0.13074651
0.12745528
0.12328766
0.11786403
0.11078825
0.10168587
0.090223526
0.076129422
0.059252117
0.039757391
0.016861444
0.1386898
0.13780204
0.13605464
0.13373839
0.13095293
0.12758165
0.12333919
0.11785356
0.11073309
0.10160513
0.090136213
0.076052738
0.059199307
0.039734352
0.016862082
0.13905378
0.13815078
0.13636709
0.13399401
0.13113698
0.1276892
0.12337531
0.11783083
0.11066849
0.10151751
0.090044281
0.075973354
0.059145264
0.039710969
0.016862604
0.13938818
0.1384706
0.13665225
0.13422495
0.13129956
0.12777873
0.12339673
0.11779646
0.11059503
0.10142348
0.089948116
0.075891549
0.059090159
0.039687311
0.016863014
0.1396942
0.13876267
0.13691124
0.1344322
0.13144157
0.12785101
0.12340416
0.11775109
0.11051325
0.10132353
0.089848093
0.0758076
0.059034159
0.039663448
0.016863318
0.13997302
0.13902817
0.13714517
0.13461676
0.1315639
0.12790685
0.1233983
0.11769533
0.11042369
0.1012181
0.089744585
0.075721775
0.058977427
0.039639445
0.01686352
0.14022582
0.13926823
0.13735509
0.13477961
0.13166742
0.12794701
0.12337982
0.11762979
0.11032689
0.10110766
0.089637954
0.075634336
0.058920121
0.039615366
0.016863625
0.14045374
0.13948396
0.13754208
0.13492173
0.13175298
0.12797226
0.12334941
0.11755507
0.11022337
0.10099265
0.089528554
0.075545538
0.058862393
0.039591272
0.016863639
0.14065788
0.13967646
0.13770715
0.13504404
0.13182144
0.12798333
0.12330772
0.11747176
0.11011364
0.10087349
0.089416727
0.075455626
0.058804389
0.039567221
0.016863566
0.14083931
0.13984677
0.13785131
0.13514748
0.13187361
0.12798096
0.1232554
0.11738041
0.1099982
0.1007506
0.089302804
0.075364836
0.058746247
0.039543268
0.016863411
0.14099908
0.13999592
0.13797553
0.13523293
0.1319103
0.12796586
0.12319308
0.1172816
0.10987752
0.1006244
0.089187104
0.075273395
0.0586881
0.039519462
0.016863179
0.14113819
0.14012489
0.13808076
0.13530126
0.13193229
0.12793872
0.12312137
0.11717585
0.10975209
0.10049527
0.089069931
0.075181516
0.058630073
0.039495853
0.016862876
0.14125762
0.14023465
0.1381679
0.13535332
0.13194033
0.12790022
0.12304086
0.11706369
0.10962233
0.10036357
0.088951578
0.075089404
0.058572281
0.039472484
0.016862505
0.1413583
0.14032611
0.13823784
0.13538991
0.13193515
0.127851
0.12295213
0.11694561
0.10948868
0.10022967
0.08883232
0.07499725
0.058514835
0.039449395
0.016862072
0.14144114
0.14040016
0.13829142
0.13541183
0.13191747
0.12779168
0.12285572
0.11682209
0.10935156
0.10009391
0.088712421
0.074905236
0.058457834
0.039426623
0.016861581
0.141507
0.14045766
0.13832946
0.13541982
0.13188796
0.12772288
0.12275217
0.11669361
0.10921136
0.099956614
0.088592128
0.074813529
0.058401371
0.039404201
0.016861035
0.14155673
0.14049944
0.13835275
0.13541462
0.13184728
0.12764517
0.12264199
0.1165606
0.10906846
0.099818086
0.088471676
0.074722286
0.058345533
0.039382158
0.016860441