/*--------------------------------*- C++ -*----------------------------------*\
| =========                 |                                                 |
| \\      /  F ield         | OpenFOAM: The Open Source CFD Toolbox           |
|  \\    /   O peration     | Version:  2506                                  |
|   \\  /    A nd           | Website:  www.openfoam.com                      |
|    \\/     M anipulation  |                                                 |
\*---------------------------------------------------------------------------*/
FoamFile
{
    version     2.0;
    format      ascii;
    arch        "LSB;label=32;scalar=64";
    class       volScalarField;
    location    "26000/water";
    object      epsilon;
}
// * * * * * * * * * * * * * * * * * * * * * * * * * * * * * * * * * * * * * //

dimensions      [0 2 -3 0 0 0 0];

internalField   nonuniform List<scalar> 
6000
(
0.00010005327
0.00010005311
0.00010005314
0.00010005327
0.00010005342
0.00010005363
0.0001000539
0.00010005427
0.00010005511
0.00010005982
0.00010010144
0.00010049509
0.00010424183
0.00014354191
0.00073980483
8.5785229e-05
8.5785556e-05
8.5786111e-05
8.5786982e-05
8.5788138e-05
8.5789633e-05
8.5791527e-05
8.5794043e-05
8.5798789e-05
8.581901e-05
8.5962524e-05
8.7071869e-05
9.5619929e-05
0.00016974081
0.0010520452
7.4267219e-05
7.4268013e-05
7.426896e-05
7.4270365e-05
7.4272213e-05
7.4274585e-05
7.4277581e-05
7.4281747e-05
7.4291154e-05
7.4336305e-05
7.4633748e-05
7.6634978e-05
9.0041817e-05
0.00019500629
0.0013270628
6.4852864e-05
6.485355e-05
6.4854661e-05
6.4856389e-05
6.4858676e-05
6.4861616e-05
6.4865387e-05
6.4871112e-05
6.4886838e-05
6.4967364e-05
6.5458677e-05
6.84101e-05
8.6285088e-05
0.00021715658
0.0015411415
5.7072087e-05
5.7072704e-05
5.7073918e-05
5.7075861e-05
5.7078448e-05
5.7081784e-05
5.7086167e-05
5.7093598e-05
5.7117581e-05
5.7242267e-05
5.7947685e-05
6.180797e-05
8.3505097e-05
0.0002348614
0.0016895689
5.0576692e-05
5.0577312e-05
5.0578592e-05
5.0580667e-05
5.0583434e-05
5.0587016e-05
5.0591882e-05
5.0601216e-05
5.0635234e-05
5.0810032e-05
5.1732149e-05
5.6406881e-05
8.1259069e-05
0.00024828861
0.0017792142
4.5104569e-05
4.5105188e-05
4.5106499e-05
4.5108638e-05
4.5111496e-05
4.5115213e-05
4.5120483e-05
4.5131961e-05
4.5177479e-05
4.5405527e-05
4.6535255e-05
5.1917397e-05
7.9376731e-05
0.00025838324
0.0018218943
4.0455895e-05
4.0456503e-05
4.045782e-05
4.0459977e-05
4.0462859e-05
4.0466628e-05
4.0472257e-05
4.0486117e-05
4.0544208e-05
4.0826355e-05
4.2148994e-05
4.8144563e-05
7.7837439e-05
0.00026629433
0.0018300463
3.6476506e-05
3.6477102e-05
3.6478406e-05
3.6480546e-05
3.6483399e-05
3.6487156e-05
3.6493116e-05
3.6509564e-05
3.6580944e-05
3.6916576e-05
3.8416896e-05
4.4958845e-05
7.6693461e-05
0.00027309124
0.0018145574
3.304611e-05
3.3046691e-05
3.304797e-05
3.3050065e-05
3.3052847e-05
3.3056537e-05
3.3062809e-05
3.3082024e-05
3.3167159e-05
3.3555102e-05
3.5220975e-05
4.2274823e-05
7.6025068e-05
0.00027965054
0.0017840405
3.0069857e-05
3.007042e-05
3.0071664e-05
3.0073692e-05
3.0076366e-05
3.0079941e-05
3.0086514e-05
3.0108667e-05
3.0207924e-05
3.0647227e-05
3.2471858e-05
4.0036357e-05
7.5917105e-05
0.00028663427
0.001744886
2.7472233e-05
2.7472777e-05
2.7473976e-05
2.7475917e-05
2.747845e-05
2.7481869e-05
2.7488744e-05
2.7514021e-05
2.7627825e-05
2.8118369e-05
3.010146e-05
3.820687e-05
7.6449192e-05
0.00029450875
0.0017016307
2.5192577e-05
2.5193098e-05
2.5194246e-05
2.5196082e-05
2.5198442e-05
2.520167e-05
2.520887e-05
2.5237507e-05
2.5366478e-05
2.5909414e-05
2.805763e-05
3.6763308e-05
7.7693097e-05
0.0003035735
0.00165739
2.3181748e-05
2.3182245e-05
2.3183333e-05
2.3185048e-05
2.3187207e-05
2.3190219e-05
2.3197794e-05
2.323011e-05
2.3375184e-05
2.3973213e-05
2.6300284e-05
3.5692527e-05
7.9712907e-05
0.00031398658
0.0016142425
2.1399629e-05
2.14001e-05
2.140112e-05
2.1402697e-05
2.140463e-05
2.1407412e-05
2.1415452e-05
2.1451882e-05
2.1614405e-05
2.2271964e-05
2.4798652e-05
3.4989203e-05
8.2565442e-05
0.00032578296
0.0015735325
1.9813231e-05
1.9813672e-05
1.9814616e-05
1.981604e-05
1.9817725e-05
1.9820279e-05
1.9828922e-05
1.9870043e-05
2.0051847e-05
2.0775227e-05
2.3529325e-05
3.4654636e-05
8.6299521e-05
0.00033888748
0.0015360911
1.8395236e-05
1.8395645e-05
1.8396506e-05
1.8397761e-05
1.8399183e-05
1.8401531e-05
1.8410972e-05
1.8457531e-05
1.8660989e-05
1.9458432e-05
2.2474895e-05
3.4695971e-05
9.095345e-05
0.00035312607
0.0015023901
1.7122886e-05
1.7123259e-05
1.7124028e-05
1.7125102e-05
1.712625e-05
1.7128438e-05
1.7138942e-05
1.7191872e-05
1.7419954e-05
1.8301752e-05
2.1622992e-05
3.5125546e-05
9.6550687e-05
0.00036823944
0.0014726449
1.5977101e-05
1.5977436e-05
1.5978105e-05
1.5978984e-05
1.5979859e-05
1.598196e-05
1.5993865e-05
1.6054312e-05
1.6310628e-05
1.7289248e-05
2.0965619e-05
3.5960111e-05
0.00010309413
0.00038390222
0.0014468811
1.4941799e-05
1.4942091e-05
1.4942652e-05
1.4943329e-05
1.494394e-05
1.4946058e-05
1.4959787e-05
1.5029124e-05
1.5317979e-05
1.6408225e-05
2.049868e-05
3.7219755e-05
0.00011055991
0.00039974861
0.00142498
1.4003348e-05
1.4003595e-05
1.4004041e-05
1.4004511e-05
1.400488e-05
1.4007153e-05
1.402322e-05
1.4103071e-05
1.442952e-05
1.5648751e-05
2.0221625e-05
3.8926414e-05
0.00011889194
0.00041540307
0.0014067117
1.3150142e-05
1.315034e-05
1.3150665e-05
1.3150927e-05
1.315109e-05
1.3153695e-05
1.3172714e-05
1.3264971e-05
1.3634892e-05
1.5003284e-05
2.0137155e-05
4.1101901e-05
0.00012799852
0.0004305123
0.0013917631
1.2372247e-05
1.2372393e-05
1.2372592e-05
1.237265e-05
1.2372659e-05
1.2375814e-05
1.2398506e-05
1.2505359e-05
1.2925534e-05
1.446641e-05
2.0250947e-05
4.3765469e-05
0.00013775238
0.00044477369
0.0013797649
1.1661123e-05
1.1661215e-05
1.1661286e-05
1.166115e-05
1.1661074e-05
1.1665043e-05
1.1692246e-05
1.1816209e-05
1.2294425e-05
1.4034634e-05
2.0571326e-05
4.6930996e-05
0.00014799478
0.00045795585
0.0013703185
1.1009401e-05
1.1009437e-05
1.1009378e-05
1.1009066e-05
1.1008994e-05
1.101409e-05
1.104677e-05
1.1190715e-05
1.1735881e-05
1.3706238e-05
2.1108871e-05
5.0604014e-05
0.00015854368
0.00046990849
0.0013630208
1.0410692e-05
1.041067e-05
1.0410485e-05
1.0410022e-05
1.0410062e-05
1.0416652e-05
1.0455917e-05
1.0623112e-05
1.1245399e-05
1.3481165e-05
2.1875889e-05
5.4778859e-05
0.00016920526
0.00048056142
0.0013574861
9.8594384e-06
9.8593586e-06
9.8590515e-06
9.8584721e-06
9.8587577e-06
9.8672657e-06
9.9143754e-06
1.0108535e-05
1.0819533e-05
1.3360938e-05
2.2885735e-05
5.9436317e-05
0.00017978706
0.00048991474
0.001353362
9.3507874e-06
9.3506504e-06
9.3502304e-06
9.3495787e-06
9.3502669e-06
9.3611826e-06
9.4175684e-06
9.6428999e-06
1.045581e-05
1.3348574e-05
2.4151947e-05
6.4542152e-05
0.00019011095
0.00049802341
0.0013503406
8.8804873e-06
8.8802951e-06
8.8797751e-06
8.879106e-06
8.8803818e-06
8.8942644e-06
8.9615474e-06
9.2228179e-06
1.0152655e-05
1.3448503e-05
2.5687206e-05
7.0046824e-05
0.00020002406
0.00050498001
0.0013481619
8.4448007e-06
8.4445568e-06
8.4439543e-06
8.4433345e-06
8.4454129e-06
8.4628989e-06
8.5429123e-06
8.8455163e-06
9.9093487e-06
1.3666457e-05
2.7502143e-05
7.5886621e-05
0.00020940613
0.0005108985
0.0013466143
8.0404324e-06
8.0401416e-06
8.0394792e-06
8.0389884e-06
8.0421174e-06
8.0639293e-06
8.1587433e-06
8.508784e-06
9.7259953e-06
1.4009323e-05
2.9604058e-05
8.1986182e-05
0.00021817297
0.000515901
0.00134553
7.664468e-06
7.6641372e-06
7.663443e-06
7.6631755e-06
7.6676392e-06
7.6945949e-06
7.8065457e-06
8.2109262e-06
9.6034999e-06
1.4484936e-05
3.1995646e-05
8.8262229e-05
0.00022627582
0.0005201082
0.0013447795
7.3143234e-06
7.3139614e-06
7.3132697e-06
7.3133352e-06
7.319458e-06
7.3524816e-06
7.4842048e-06
7.950732e-06
9.5435554e-06
1.5101802e-05
3.4673865e-05
9.4628079e-05
0.00023369766
0.00052363336
0.0013442658
6.9877006e-06
6.9873184e-06
6.9866703e-06
6.9871959e-06
6.9953468e-06
7.0354818e-06
7.1899496e-06
7.7274515e-06
9.5486283e-06
1.5868742e-05
3.7629069e-05
0.00010099842
0.00024044745
0.00052657911
0.0013439174
6.6825513e-06
6.6821625e-06
6.6816065e-06
6.6827386e-06
6.6933357e-06
6.741759e-06
6.9223234e-06
7.5407805e-06
9.6219392e-06
1.6794438e-05
4.0844542e-05
0.00010729381
0.00024655353
0.00052903629
0.0013436835
6.3970453e-06
6.396666e-06
6.3962591e-06
6.3981651e-06
6.411682e-06
6.4697206e-06
6.6801611e-06
7.3908531e-06
9.7674314e-06
1.7886905e-05
4.4296529e-05
0.00011344429
0.00025205715
0.0005310841
0.0013435288
6.1295436e-06
6.129193e-06
6.129001e-06
6.1318719e-06
6.1488438e-06
6.2179935e-06
6.4625723e-06
7.2782395e-06
9.9897187e-06
1.9152894e-05
4.7954808e-05
0.00011939198
0.0002570069
0.00053279086
0.0013434302
5.8785752e-06
5.8782757e-06
5.8783746e-06
5.8824275e-06
5.903459e-06
5.9854055e-06
6.2689287e-06
7.2039478e-06
1.0294006e-05
2.0597266e-05
5.1783773e-05
0.00012509231
0.00026145422
0.00053421505
0.001343373
5.6428172e-06
5.642595e-06
5.6430719e-06
5.6485531e-06
5.6743264e-06
5.7709695e-06
6.0988564e-06
7.1694287e-06
1.0685974e-05
2.2222385e-05
5.5743957e-05
0.00013051409
0.00026545025
0.00053540647
0.0013433493
5.4210776e-06
5.4209629e-06
5.4219174e-06
5.4291059e-06
5.4603909e-06
5.5738715e-06
5.9522322e-06
7.1765787e-06
1.1171622e-05
2.4027579e-05
5.9793835e-05
0.00013563849
0.00026904378
0.00053640725
0.0013433553
5.2122808e-06
5.2123081e-06
5.2138535e-06
5.2230651e-06
5.26073e-06
5.3934608e-06
5.8291825e-06
7.2277422e-06
1.1757062e-05
2.6008735e-05
6.3891718e-05
0.00014045745
0.00027228005
0.00053725289
0.0013433902
5.0154542e-06
5.0156629e-06
5.0179281e-06
5.0295196e-06
5.0745437e-06
5.2292435e-06
5.7300867e-06
7.3257058e-06
1.2448271e-05
2.8158067e-05
6.7997574e-05
0.00014497164
0.00027520024
0.00053797312
0.0013434553
4.8297171e-06
4.8301524e-06
4.8332834e-06
4.847658e-06
4.9011459e-06
5.0808782e-06
5.6555823e-06
7.4736832e-06
1.3250795e-05
3.0464119e-05
7.2074574e-05
0.00014918835
0.00027784139
0.00053859274
0.0013435527
4.654271e-06
4.6549842e-06
4.6591465e-06
4.6767597e-06
4.739957e-06
4.9481738e-06
5.6065719e-06
7.675286e-06
1.4169424e-05
3.2911986e-05
7.6090276e-05
0.00015311953
0.00028023648
0.00053913229
0.0013436849
4.4883913e-06
4.4894404e-06
4.4948214e-06
4.5161875e-06
4.5904991e-06
4.8310889e-06
5.5842316e-06
7.9344756e-06
1.5207848e-05
3.5483783e-05
8.0017361e-05
0.00015678017
0.00028241474
0.00053960872
0.0013438547
4.3314193e-06
4.3328703e-06
4.3396818e-06
4.3653818e-06
4.452392e-06
4.7297344e-06
5.5900196e-06
8.2554924e-06
1.6368331e-05
3.8159288e-05
8.3833934e-05
0.00016018692
0.00028440197
0.000540036
0.0013440645
4.1827562e-06
4.1846838e-06
4.1931653e-06
4.2238553e-06
4.3253508e-06
4.6443763e-06
5.6256833e-06
8.6427601e-06
1.7651409e-05
4.091674e-05
8.7523435e-05
0.00016335711
0.00028622083
0.00054042551
0.0013443165
4.0418571e-06
4.0443457e-06
4.0547683e-06
4.0911891e-06
4.2091847e-06
4.5754417e-06
5.693263e-06
9.1007602e-06
1.9055659e-05
4.3733692e-05
9.1074258e-05
0.00016630805
0.00028789124
0.00054078659
0.0013446125
3.9082261e-06
3.9113713e-06
3.9240414e-06
3.96703e-06
4.103797e-06
4.5235249e-06
5.795091e-06
9.6338806e-06
2.0577553e-05
4.6587862e-05
9.4479152e-05
0.00016905655
0.00028943061
0.0005411268
0.0013449537
3.781412e-06
3.7853219e-06
3.8005859e-06
3.8510876e-06
4.0091864e-06
4.4893954e-06
5.9337828e-06
1.0246238e-05
2.2211425e-05
4.9457898e-05
9.7734541e-05
0.00017161867
0.00029085417
0.00054145228
0.001345341
3.6610043e-06
3.6658014e-06
3.6840513e-06
3.7431338e-06
3.9254494e-06
4.4740067e-06
6.1122183e-06
1.0941479e-05
2.3949552e-05
5.2324023e-05
0.00010083981
0.0001740095
0.00029217525
0.00054176799
0.001345775
3.5466302e-06
3.5524531e-06
3.5741321e-06
3.6430016e-06
3.8527838e-06
4.4785051e-06
6.3335104e-06
1.172258e-05
2.5782349e-05
5.51685e-05
0.00010379664
0.00017624312
0.00029340545
0.00054207792
0.0013462556
3.4379516e-06
3.4449572e-06
3.470567e-06
3.5505856e-06
3.7914931e-06
4.5042378e-06
6.6009582e-06
1.2591638e-05
2.7698675e-05
5.7975927e-05
0.00010660842
0.00017833256
0.00029455494
0.00054238526
0.0013467828
3.3346627e-06
3.3430286e-06
3.373137e-06
3.4658429e-06
3.7419925e-06
4.5527599e-06
6.9179829e-06
1.3549688e-05
2.9686212e-05
6.0733357e-05
0.00010927977
0.00018028982
0.00029563258
0.00054269258
0.001347356
3.2364878e-06
3.2464154e-06
3.281665e-06
3.3887949e-06
3.7048152e-06
4.6258384e-06
7.2880457e-06
1.4596555e-05
3.1731891e-05
6.3430277e-05
0.00011181611
0.00018212592
0.00029664614
0.00054300188
0.0013479746
3.1431799e-06
3.1548974e-06
3.1960156e-06
3.3195298e-06
3.6806199e-06
4.7254524e-06
7.7145469e-06
1.5730747e-05
3.382234e-05
6.6058466e-05
0.0001142234
0.00018385092
0.0002976024
0.00054331476
0.0013486378
3.0545192e-06
3.0682854e-06
3.1160958e-06
3.2582055e-06
3.6701986e-06
4.8537869e-06
8.2007094e-06
1.6949409e-05
3.5944302e-05
6.8611787e-05
0.00011650785
0.00018547397
0.00029850734
0.00054363245
0.0013493444
2.9703119e-06
2.9864203e-06
3.0418551e-06
3.2050543e-06
3.6744852e-06
5.0132197e-06
8.7494484e-06
1.824835e-05
3.8085015e-05
7.1085926e-05
0.00011867579
0.00018700343
0.00029936619
0.00054395589
0.0013500934
2.8903898e-06
2.9091733e-06
2.9732878e-06
3.1603869e-06
3.6945633e-06
5.2062984e-06
9.363235e-06
1.9622123e-05
4.0232514e-05
7.3478132e-05
0.00012073351
0.00018844688
0.00030018354
0.00054428579
0.0013508836
2.8146096e-06
2.836446e-06
2.9104344e-06
3.1245986e-06
3.731674e-06
5.4357064e-06
1.004396e-05
2.1064182e-05
4.237586e-05
7.578695e-05
0.00012268719
0.00018981122
0.00030096346
0.00054462267
0.0013517136
2.7428528e-06
2.7681709e-06
2.8533843e-06
3.098175e-06
3.7872216e-06
5.7042166e-06
1.079281e-05
2.2567071e-05
4.4505286e-05
7.8011982e-05
0.00012454279
0.00019110267
0.00030170951
0.00054496686
0.0013525823
2.6750262e-06
2.7043127e-06
2.8022791e-06
3.0816992e-06
3.862777e-06
6.0146318e-06
1.1610155e-05
2.4122666e-05
4.6612265e-05
8.0153677e-05
0.00012630606
0.00019232691
0.00030242479
0.00054531839
0.0013534882
2.6110622e-06
2.6448693e-06
2.7573159e-06
3.0758592e-06
3.9600781e-06
6.3697125e-06
1.2495478e-05
2.5722424e-05
4.8689516e-05
8.2213155e-05
0.00012798249
0.00019348922
0.00030311296
0.00054567961
0.0013544295
2.5509198e-06
2.5898742e-06
2.718752e-06
3.0814557e-06
4.0810246e-06
6.7720928e-06
1.3447328e-05
2.7357637e-05
5.0730963e-05
8.4192054e-05
0.0001295773
0.00019459431
0.0003037761
0.00054604535
0.0013554045
2.494586e-06
2.5393984e-06
2.6869098e-06
3.0994094e-06
4.2276672e-06
7.2241862e-06
1.4463315e-05
2.9019661e-05
5.2731649e-05
8.609239e-05
0.00013109537
0.00019564635
0.00030441575
0.000546414
0.0013564111
2.4420772e-06
2.4935535e-06
2.6621823e-06
3.1307691e-06
4.4021885e-06
7.7280872e-06
1.5540153e-05
3.0700123e-05
5.4687629e-05
8.7916447e-05
0.0001325413
0.00019664904
0.00030503329
0.00054678556
0.0013574471
2.3934419e-06
2.4524951e-06
2.6450394e-06
3.1767177e-06
4.6068756e-06
8.285472e-06
1.6673737e-05
3.2391086e-05
5.6595864e-05
8.9666714e-05
0.00013391945
0.00019760627
0.00030563173
0.00054715701
0.0013585106
2.3487625e-06
2.4164266e-06
2.6360346e-06
3.2385774e-06
4.8440829e-06
8.8975066e-06
1.7859254e-05
3.4085177e-05
5.8454112e-05
9.1345816e-05
0.00013523395
0.00019852136
0.00030621172
0.00054752789
0.0013595998
2.3081594e-06
2.3856042e-06
2.6358124e-06
3.3178119e-06
5.1161842e-06
9.5647661e-06
1.9091323e-05
3.5775666e-05
6.0260814e-05
9.295644e-05
0.00013648857
0.00019939687
0.00030677288
0.00054790006
0.0013607134
2.2717941e-06
2.3603413e-06
2.6451156e-06
3.4160259e-06
5.4255149e-06
1.0287173e-05
2.036415e-05
3.7456517e-05
6.201499e-05
9.4501277e-05
0.00013768675
0.00020023503
0.0003073159
0.00054827472
0.0013618504
2.2398737e-06
2.3410153e-06
2.6647936e-06
3.5349592e-06
5.7743051e-06
1.1063959e-05
2.1671684e-05
3.9122393e-05
6.3716152e-05
9.5983012e-05
0.00013883178
0.0002010383
0.00030784116
0.00054865312
0.0013630097
2.2126561e-06
2.3280734e-06
2.695809e-06
3.6764757e-06
6.1646055e-06
1.1893656e-05
2.3007775e-05
4.0768652e-05
6.5364234e-05
9.7404381e-05
0.0001399271
0.00020180978
0.0003083474
0.00054903713
0.0013641908
2.1904555e-06
2.3220399e-06
2.739245e-06
3.8425451e-06
6.5982099e-06
1.2774111e-05
2.4366312e-05
4.2391314e-05
6.695951e-05
9.8768002e-05
0.00014097536
0.00020254989
0.00030883705
0.00054942721
0.0013653932
2.1736491e-06
2.3235241e-06
2.7963106e-06
4.0352172e-06
7.0765768e-06
1.3702535e-05
2.574135e-05
4.3987012e-05
6.8502514e-05
0.00010007634
0.00014197888
0.0002032598
0.00030931196
0.00054982327
0.0013666162
2.1626844e-06
2.3332282e-06
2.8683442e-06
4.2565866e-06
7.6007568e-06
1.4675571e-05
2.7127203e-05
4.5552944e-05
6.9993976e-05
0.00010133171
0.00014293978
0.00020394106
0.00030977366
0.00055022506
0.0013678587
2.1580871e-06
2.3519559e-06
2.9568137e-06
4.5087498e-06
8.1713285e-06
1.5689384e-05
2.8518524e-05
4.7086833e-05
7.1434895e-05
0.00010253683
0.00014386157
0.00020459274
0.00031022398
0.00055063272
0.0013691201
2.16047e-06
2.380621e-06
3.0633136e-06
4.7937523e-06
8.7883492e-06
1.6739763e-05
2.9910355e-05
4.8586861e-05
7.2826362e-05
0.00010369383
0.00014474503
0.00020521727
0.00031066402
0.00055104634
0.0013703994
2.1705427e-06
2.4202551e-06
3.1895559e-06
5.1135297e-06
9.4513233e-06
1.7822228e-05
3.129816e-05
5.0051608e-05
7.4169491e-05
0.00010480455
0.00014559149
0.00020581674
0.00031109452
0.00055146583
0.0013716961
2.1891214e-06
2.4720155e-06
3.3373555e-06
5.4698424e-06
1.0159191e-05
1.893214e-05
3.2677829e-05
5.1479988e-05
7.5465416e-05
0.00010587073
0.00014640255
0.00020639293
0.00031151604
0.00055189096
0.0013730091
2.2171398e-06
2.5371901e-06
3.5086082e-06
5.8642085e-06
1.0910337e-05
2.0064805e-05
3.4045695e-05
5.28713e-05
7.6715712e-05
0.00010689534
0.00014717785
0.00020694768
0.00031192932
0.0005523215
0.0013743378
2.2556586e-06
2.6172012e-06
3.7052603e-06
6.2978367e-06
1.1702626e-05
2.1215558e-05
3.5398511e-05
5.4225069e-05
7.7921556e-05
0.00010787906
0.00014791977
0.00020748234
0.00031233498
0.00055275722
0.0013756813
2.3058764e-06
2.7136048e-06
3.9292697e-06
6.7715655e-06
1.2533447e-05
2.2379847e-05
3.6733419e-05
5.5540987e-05
7.9083999e-05
0.00010882306
0.00014863038
0.00020799801
0.00031273348
0.00055319785
0.0013770387
2.3691374e-06
2.8280858e-06
4.1825593e-06
7.2858106e-06
1.3399779e-05
2.3553293e-05
3.8047943e-05
5.6819003e-05
8.0204453e-05
0.00010972819
0.0001493115
0.00020849572
0.00031312521
0.00055364311
0.0013784092
2.4469385e-06
2.9624464e-06
4.4669617e-06
7.8405244e-06
1.4298268e-05
2.4731743e-05
3.9339982e-05
5.8059333e-05
8.1284496e-05
0.00011059503
0.00014996482
0.00020897647
0.00031351049
0.0005540927
0.0013797921
2.540932e-06
3.1185884e-06
4.7841589e-06
8.4351727e-06
1.5225301e-05
2.5911295e-05
4.0607712e-05
5.926205e-05
8.2324532e-05
0.00011142557
0.00015059174
0.00020944116
0.0003138896
0.00055454628
0.0013811864
2.6529236e-06
3.2984856e-06
5.135619e-06
9.0687265e-06
1.6177092e-05
2.708831e-05
4.1849544e-05
6.0427241e-05
8.3325346e-05
0.0001122216
0.00015119351
0.00020989056
0.00031426279
0.00055500353
0.0013825914
2.7848641e-06
3.5041476e-06
5.5225318e-06
9.739674e-06
1.7149758e-05
2.8259474e-05
4.3064391e-05
6.1556081e-05
8.4286629e-05
0.00011298476
0.00015177133
0.00021032536
0.00031463023
0.00055546413
0.0013840063
2.9388324e-06
3.7375741e-06
5.9457493e-06
1.0446047e-05
1.8139389e-05
2.942174e-05
4.4251131e-05
6.2648245e-05
8.5209859e-05
0.00011371648
0.00015232631
0.00021074619
0.00031499209
0.00055592773
0.0013854302
3.1170072e-06
4.0007002e-06
6.4057328e-06
1.1185463e-05
1.9142099e-05
3.0572291e-05
4.5408716e-05
6.3703717e-05
8.6096479e-05
0.00011441804
0.00015285945
0.00021115362
0.00031534847
0.00055639398
0.0013868624
3.3216282e-06
4.2953329e-06
6.9025123e-06
1.1955182e-05
2.0154113e-05
3.1708764e-05
4.6537112e-05
6.4721738e-05
8.6947814e-05
0.00011509067
0.00015337165
0.00021154814
0.00031569947
0.00055686255
0.0013883021
3.5549421e-06
4.6230839e-06
7.435659e-06
1.2752163e-05
2.1171769e-05
3.282886e-05
4.7635173e-05
6.5702983e-05
8.776505e-05
0.0001157355
0.00015386374
0.00021193021
0.00031604515
0.00055733308
0.0013897484
3.8191368e-06
4.9852989e-06
8.0042745e-06
1.3573131e-05
2.2191545e-05
3.3930516e-05
4.8701824e-05
6.6648283e-05
8.854928e-05
0.00011635359
0.00015433647
0.0002123002
0.00031638552
0.00055780523
0.0013912006
4.1162632e-06
5.3829902e-06
8.6069996e-06
1.4414664e-05
2.3210221e-05
3.501245e-05
4.9735634e-05
6.7558405e-05
8.9301558e-05
0.00011694588
0.00015479052
0.00021265847
0.00031672062
0.00055827863
0.001392658
4.4481473e-06
5.8167738e-06
9.2420326e-06
1.5273215e-05
2.4224574e-05
3.6072358e-05
5.0736573e-05
6.8434055e-05
9.0022866e-05
0.00011751326
0.00015522652
0.00021300532
0.0003170504
0.00055875294
0.0013941197
4.816299e-06
6.2868211e-06
9.9071826e-06
1.6145285e-05
2.5232106e-05
3.7107751e-05
5.1704614e-05
6.9275925e-05
9.0714115e-05
0.00011805655
0.00015564501
0.000213341
0.00031737485
0.00055922779
0.001395585
5.221821e-06
6.7928197e-06
1.0599898e-05
1.7027293e-05
2.6229743e-05
3.8117093e-05
5.2639755e-05
7.0084679e-05
9.1376152e-05
0.00011857648
0.0001560465
0.00021366573
0.00031769389
0.00055970281
0.0013970533
5.6653297e-06
7.3339668e-06
1.1317405e-05
1.7916118e-05
2.7213972e-05
3.9099275e-05
5.3542034e-05
7.086095e-05
9.2009762e-05
0.00011907373
0.00015643143
0.0002139797
0.00031800744
0.00056017764
0.0013985236
6.1468909e-06
7.9089686e-06
1.2056712e-05
1.8808008e-05
2.8182088e-05
4.0053301e-05
5.4411523e-05
7.1605338e-05
9.2615662e-05
0.0001195489
0.00015680018
0.00021428305
0.0003183154
0.00056065188
0.0013999953
6.6659907e-06
8.5161085e-06
1.2814836e-05
1.9698936e-05
2.9131803e-05
4.0978299e-05
5.5248317e-05
7.2318402e-05
9.3194513e-05
0.00012000254
0.00015715312
0.00021457588
0.00031861764
0.00056112516
0.0014014675
7.2215994e-06
9.1533575e-06
1.3587904e-05
2.0585522e-05
3.0061029e-05
4.1873503e-05
5.6052528e-05
7.3000663e-05
9.3746913e-05
0.00012043515
0.00015749051
0.00021485826
0.00031891402
0.00056159706
0.0014029397
7.8119854e-06
9.8178502e-06
1.437225e-05
2.1464586e-05
3.0967879e-05
4.2738248e-05
5.6824276e-05
7.3652601e-05
9.4273401e-05
0.00012084714
0.00015781261
0.00021513025
0.00031920436
0.00056206717
0.0014044109
8.4346942e-06
1.0506382e-05
1.5164223e-05
2.233316e-05
3.1850649e-05
4.3571954e-05
5.7563689e-05
7.4274658e-05
9.4774464e-05
0.0001212389
0.00015811963
0.00021539183
0.00031948847
0.00056253506
0.0014058804
9.0867053e-06
1.1215453e-05
1.5960238e-05
2.3188503e-05
3.2707823e-05
4.4374127e-05
5.8270897e-05
7.4867233e-05
9.5250529e-05
0.00012161075
0.00015841171
0.00021564299
0.00031976613
0.00056300029
0.0014073474
9.7645221e-06
1.1941353e-05
1.6756823e-05
2.4028106e-05
3.353806e-05
4.5144351e-05
5.8946033e-05
7.543069e-05
9.5701977e-05
0.00012196297
0.00015868898
0.00021588366
0.00032003711
0.00056346239
0.001408811
1.0464277e-05
1.268024e-05
1.7550657e-05
2.4849697e-05
3.4340193e-05
4.5882284e-05
5.9589235e-05
7.5965357e-05
9.6129137e-05
0.00012229578
0.0001589515
0.00021611376
0.00032030115
0.00056392088
0.0014102703
1.1181844e-05
1.3428223e-05
1.8338594e-05
2.5651239e-05
3.5113222e-05
4.6587662e-05
6.0200645e-05
7.6471532e-05
9.6532295e-05
0.00012260936
0.00015919933
0.00021633318
0.00032055795
0.00056437526
0.0014117245
1.1912952e-05
1.4181436e-05
1.9117697e-05
2.6430932e-05
3.5856314e-05
4.7260294e-05
6.0780414e-05
7.6949483e-05
9.6911695e-05
0.00012290386
0.00015943245
0.00021654175
0.00032080722
0.000564825
0.0014131725
1.2653291e-05
1.4936103e-05
1.9885247e-05
2.7187209e-05
3.6568794e-05
4.7900065e-05
6.1328708e-05
7.7399459e-05
9.7267546e-05
0.00012317937
0.00015965085
0.00021673932
0.00032104864
0.00056526957
0.0014146134
1.3398612e-05
1.5688603e-05
2.0638759e-05
2.7918725e-05
3.7250143e-05
4.8506939e-05
6.1845711e-05
7.7821693e-05
9.7600026e-05
0.00012343598
0.00015985446
0.00021692568
0.00032128184
0.0005657084
0.001416046
1.4144811e-05
1.643551e-05
2.137599e-05
2.8624355e-05
3.7899996e-05
4.9080957e-05
6.2331629e-05
7.8216406e-05
9.7909289e-05
0.00012367371
0.00016004319
0.00021710062
0.00032150647
0.00056614092
0.0014174693
1.4887998e-05
1.7173641e-05
2.2094939e-05
2.9303179e-05
3.8518128e-05
4.9622241e-05
6.2786701e-05
7.858382e-05
9.8195467e-05
0.00012389259
0.00016021693
0.00021726389
0.00032172216
0.00056656653
0.001418882
1.562455e-05
1.7900075e-05
2.2793848e-05
2.9954474e-05
3.9104457e-05
5.0130995e-05
6.3211196e-05
7.8924158e-05
9.8458685e-05
0.00012409262
0.00016037556
0.00021741524
0.00032192849
0.00056698462
0.001420283
1.6351148e-05
1.8612178e-05
2.3471201e-05
3.0577702e-05
3.9659027e-05
5.0607501e-05
6.3605426e-05
7.9237656e-05
9.8699059e-05
0.00012427377
0.00016051893
0.00021755439
0.00032212507
0.00056739458
0.0014216709
1.7064807e-05
1.9307609e-05
2.4125711e-05
3.1172495e-05
4.0182007e-05
5.1052121e-05
6.3969745e-05
7.9524566e-05
9.8916708e-05
0.00012443605
0.00016064689
0.00021768108
0.00032231149
0.00056779577
0.0014230444
1.7762881e-05
1.9984326e-05
2.4756314e-05
3.1738645e-05
4.0673676e-05
5.1465294e-05
6.4304553e-05
7.9785165e-05
9.9111758e-05
0.00012457941
0.00016075929
0.00021779501
0.00032248733
0.00056818755
0.0014244021
1.8443068e-05
2.0640578e-05
2.536216e-05
3.2276088e-05
4.1134418e-05
5.1847531e-05
6.4610299e-05
8.0019756e-05
9.928435e-05
0.00012470385
0.00016085596
0.00021789592
0.00032265217
0.00056856929
0.0014257426
1.9103407e-05
2.1274898e-05
2.5942597e-05
3.2784894e-05
4.156471e-05
5.2199414e-05
6.4887483e-05
8.0228679e-05
9.9434646e-05
0.00012480936
0.00016093677
0.00021798351
0.00032280561
0.00056894036
0.0014270645
1.9742256e-05
2.1886089e-05
2.6497159e-05
3.3265251e-05
4.1965111e-05
5.2521587e-05
6.5136652e-05
8.0412307e-05
9.9562833e-05
0.00012489597
0.00016100158
0.00021805754
0.00032294724
0.00056930013
0.0014283662
2.035828e-05
2.2473207e-05
2.7025552e-05
3.3717453e-05
4.2336253e-05
5.2814753e-05
6.5358403e-05
8.0571054e-05
9.966913e-05
0.00012496371
0.00016105028
0.00021811775
0.00032307669
0.000569648
0.0014296463
2.0950431e-05
2.3035542e-05
2.7527636e-05
3.414189e-05
4.2678833e-05
5.3079668e-05
6.5553381e-05
8.0705376e-05
9.9753789e-05
0.00012501264
0.00016108277
0.00021816392
0.00032319358
0.00056998335
0.0014309033
2.151792e-05
2.35726e-05
2.8003417e-05
3.4539033e-05
4.2993599e-05
5.3317133e-05
6.5722273e-05
8.0815769e-05
9.98171e-05
0.00012504288
0.00016109901
0.00021819585
0.00032329759
0.00057030564
0.0014321357
2.2060194e-05
2.4084081e-05
2.8453026e-05
3.4909427e-05
4.3281347e-05
5.3527986e-05
6.5865808e-05
8.0902771e-05
9.9859395e-05
0.00012505456
0.00016109896
0.00021821339
0.00032338841
0.00057061432
0.001433342
2.2576913e-05
2.4569859e-05
2.8876706e-05
3.5253676e-05
4.3542908e-05
5.3713101e-05
6.5984751e-05
8.0966961e-05
9.9881045e-05
0.00012504786
0.00016108265
0.0002182164
0.00032346579
0.00057090888
0.0014345208
2.3067926e-05
2.5029963e-05
2.92748e-05
3.5572439e-05
4.3779141e-05
5.3873377e-05
6.60799e-05
8.1008958e-05
9.9882466e-05
0.00012502301
0.00016105013
0.0002182048
0.00032352948
0.00057118887
0.0014356706
2.3533248e-05
2.5464556e-05
2.9647739e-05
3.5866416e-05
4.3990926e-05
5.4009731e-05
6.6152081e-05
8.1029414e-05
9.9864113e-05
0.00012498027
0.00016100152
0.00021817857
0.00032357933
0.00057145386
0.0014367902
2.3973036e-05
2.5873922e-05
2.9996024e-05
3.6136342e-05
4.4179162e-05
5.4123097e-05
6.6202142e-05
8.1029018e-05
9.9826488e-05
0.00012491996
0.00016093695
0.00021813771
0.00032361521
0.0005717035
0.0014378781
2.4387571e-05
2.6258442e-05
3.0320223e-05
3.6382981e-05
4.4344752e-05
5.4214416e-05
6.6230952e-05
8.1008489e-05
9.9770127e-05
0.00012484244
0.00016085664
0.0002180823
0.00032363704
0.00057193748
0.0014389332
2.4777242e-05
2.6618585e-05
3.0620952e-05
3.6607117e-05
4.4488607e-05
5.4284633e-05
6.6239391e-05
8.0968573e-05
9.9695608e-05
0.00012474813
0.00016076085
0.00021801246
0.00032364483
0.00057215554
0.0014399543
2.5142524e-05
2.6954891e-05
3.0898873e-05
3.6809549e-05
4.4611636e-05
5.4334694e-05
6.6228351e-05
8.091004e-05
9.9603545e-05
0.00012463746
0.00016064989
0.00021792838
0.00032363861
0.00057235751
0.0014409403
2.5483965e-05
2.726796e-05
3.1154679e-05
3.6991085e-05
4.4714743e-05
5.4365538e-05
6.619873e-05
8.0833677e-05
9.9494584e-05
0.00012451095
0.0001605241
0.00021783029
0.0003236185
0.00057254325
0.0014418902
2.5802176e-05
2.7558438e-05
3.1389092e-05
3.7152539e-05
4.4798826e-05
5.4378098e-05
6.6151427e-05
8.0740291e-05
9.93694e-05
0.00012436913
0.00016038392
0.00021771848
0.00032358467
0.00057271272
0.0014428032
2.6097814e-05
2.7827009e-05
3.160285e-05
3.7294726e-05
4.4864771e-05
5.4373296e-05
6.6087338e-05
8.0630698e-05
9.9228696e-05
0.00012421257
0.00016022979
0.00021759331
0.00032353735
0.00057286593
0.0014436784
2.6371572e-05
2.8074387e-05
3.1796708e-05
3.7418456e-05
4.4913451e-05
5.435204e-05
6.6007358e-05
8.0505726e-05
9.9073199e-05
0.0001240419
0.00016006222
0.00021745519
0.00032347685
0.00057300296
0.0014445151
2.6624175e-05
2.8301306e-05
3.1971425e-05
3.7524534e-05
4.4945723e-05
5.4315221e-05
6.591237e-05
8.0366205e-05
9.8903654e-05
0.00012385775
0.00015988176
0.00021730457
0.00032340351
0.00057312397
0.0014453129
2.6856364e-05
2.8508515e-05
3.2127767e-05
3.7613758e-05
4.4962427e-05
5.4263714e-05
6.5803248e-05
8.0212968e-05
9.8720822e-05
0.0001236608
0.00015968899
0.00021714196
0.00032331773
0.00057322916
0.0014460713
2.7068896e-05
2.8696769e-05
3.2266497e-05
3.7686911e-05
4.4964387e-05
5.4198374e-05
6.5680855e-05
8.004685e-05
9.8525478e-05
0.00012345176
0.00015948455
0.00021696791
0.00032321999
0.00057331883
0.0014467899
2.7262535e-05
2.886683e-05
3.2388373e-05
3.7744767e-05
4.4952404e-05
5.4120036e-05
6.5546037e-05
7.9868676e-05
9.8318403e-05
0.00012323134
0.00015926909
0.00021678301
0.00032311079
0.0005733933
0.0014474686
2.7438044e-05
2.9019455e-05
3.2494147e-05
3.7788083e-05
4.4927262e-05
5.4029513e-05
6.5399625e-05
7.967927e-05
9.8100386e-05
0.00012300028
0.00015904329
0.00021658789
0.00032299069
0.00057345298
0.0014481073
2.7596189e-05
2.9155399e-05
3.2584562e-05
3.7817602e-05
4.4889721e-05
5.3927596e-05
6.5242431e-05
7.9479444e-05
9.7872216e-05
0.00012275934
0.00015880786
0.0002163832
0.00032286027
0.00057349832
0.001448706
2.7737724e-05
2.9275407e-05
3.2660347e-05
3.7834047e-05
4.4840522e-05
5.3815055e-05
6.5075249e-05
7.9269998e-05
9.7634682e-05
0.00012250927
0.00015856353
0.00021616964
0.00032272017
0.00057352982
0.001449265
2.7863399e-05
2.9380215e-05
3.2722219e-05
3.7838126e-05