/*--------------------------------*- C++ -*----------------------------------*\
| =========                 |                                                 |
| \\      /  F ield         | OpenFOAM: The Open Source CFD Toolbox           |
|  \\    /   O peration     | Version:  2506                                  |
|   \\  /    A nd           | Website:  www.openfoam.com                      |
|    \\/     M anipulation  |                                                 |
\*---------------------------------------------------------------------------*/
FoamFile
{
    version     2.0;
    format      ascii;
    arch        "LSB;label=32;scalar=64";
    class       volScalarField;
    location    "26000/water";
    object      k;
}
// * * * * * * * * * * * * * * * * * * * * * * * * * * * * * * * * * * * * * //

dimensions      [0 2 -2 0 0 0 0];

internalField   nonuniform List<scalar> 
6000
(
0.0002144485
0.00021444827
0.00021444833
0.00021444852
0.00021444878
0.00021444911
0.00021444953
0.00021445001
0.00021445038
0.00021444961
0.00021444477
0.00021444847
0.00021482328
0.00022098609
0.00033298785
0.00019735372
0.00019735408
0.00019735481
0.00019735601
0.00019735759
0.00019735962
0.00019736212
0.0001973649
0.00019736678
0.00019736231
0.00019733424
0.0001972933
0.00019808165
0.00021190706
0.00042108833
0.00018260526
0.00018260625
0.00018260756
0.00018260957
0.0001826122
0.00018261554
0.00018261945
0.00018262311
0.00018262253
0.00018260174
0.00018251429
0.00018235696
0.00018354965
0.00020571076
0.0004915993
0.00016977104
0.00016977195
0.00016977358
0.00016977617
0.00016977959
0.00016978384
0.00016978847
0.00016979119
0.00016978242
0.00016972799
0.0001695392
0.00016920344
0.00017083025
0.00020141509
0.00054314021
0.00015851703
0.00015851791
0.00015851979
0.00015852287
0.0001585269
0.00015853173
0.00015853623
0.00015853548
0.0001585108
0.00015840225
0.00015807228
0.00015752308
0.00015966967
0.00019844232
0.00057747636
0.00014858047
0.00014858142
0.00014858351
0.00014858695
0.00014859139
0.00014859636
0.00014859955
0.0001485919
0.00014854197
0.00014835849
0.00014785779
0.00014709963
0.00014993181
0.00019659445
0.00059772639
0.00013975169
0.00013975271
0.00013975496
0.00013975864
0.00013976325
0.00013976781
0.00013976817
0.00013974945
0.00013966425
0.0001393877
0.00013870223
0.00013778194
0.00014154644
0.00019585229
0.00060724748
0.00013186192
0.00013186298
0.00013186534
0.00013186914
0.00013187366
0.00013187713
0.00013187282
0.00013183836
0.00013170812
0.00013132527
0.00013045854
0.00012946164
0.00013447268
0.00019626303
0.00060905754
0.00012477404
0.00012477514
0.00012477755
0.00012478136
0.00012478548
0.00012478703
0.00012477592
0.00012472085
0.00012453699
0.00012404097
0.00012301362
0.00012205827
0.00012868159
0.00019789321
0.0006056161
0.00011837572
0.00011837682
0.00011837924
0.0001183829
0.00011838626
0.00011838492
0.00011836468
0.00011828424
0.00011804014
0.00011743108
0.00011627928
0.00011550993
0.00012414935
0.00020080676
0.00059880682
0.0001125741
0.0001125752
0.00011257756
0.00011258091
0.00011258305
0.00011257774
0.00011254594
0.00011243584
0.00011212738
0.0001114124
0.00011018555
0.00010976786
0.00012085593
0.00020505367
0.00059001308
0.00010729189
0.00010729297
0.0001072952
0.00010729803
0.00010729845
0.00010728799
0.00010724223
0.00010709893
0.00010672477
0.00010591759
0.00010467621
0.00010479348
0.00011878602
0.00021066301
0.00058022149
0.0001024643
0.00010246533
0.00010246733
0.00010246942
0.00010246756
0.00010245071
0.00010238875
0.00010220964
0.0001017714
0.00010089174
9.9705638e-05
0.000100557
0.00011793046
0.00021763683
0.00057012062
9.8036637e-05
9.8037572e-05
9.8039255e-05
9.8040328e-05
9.8035582e-05
9.8011091e-05
9.7930966e-05
9.7714594e-05
9.7216801e-05
9.6289669e-05
9.5236719e-05
9.703687e-05
0.00011828673
0.00022594366
0.0005601824
9.3962451e-05
9.3963259e-05
9.3964497e-05
9.3964262e-05
9.3955981e-05
9.3922652e-05
9.3822751e-05
9.3568903e-05
9.3018884e-05
9.2074025e-05
9.1239503e-05
9.4219615e-05
0.00011985802
0.00023551194
0.0005507241
9.0202076e-05
9.020271e-05
9.0203366e-05
9.0201504e-05
9.0189027e-05
9.0145749e-05
9.0024925e-05
8.9734681e-05
8.9142411e-05
8.8213812e-05
8.7690325e-05
9.20998e-05
0.00012265037
0.00024622465
0.00054195294
8.6721448e-05
8.6721856e-05
8.6721776e-05
8.6717945e-05
8.6700619e-05
8.664642e-05
8.6504047e-05
8.61798e-05
8.5557736e-05
8.4683334e-05
8.4571272e-05
9.0679902e-05
0.00012666793
0.00025791693
0.00053399692
8.3491166e-05
8.3491287e-05
8.3490304e-05
8.3484151e-05
8.3461349e-05
8.3395437e-05
8.3231463e-05
8.2876915e-05
8.2239851e-05
8.1461425e-05
8.1869885e-05
8.9969913e-05
0.00013190642
0.00027037857
0.00052692519
8.0485733e-05
8.0485502e-05
8.0483437e-05
8.0474603e-05
8.0445747e-05
8.0367548e-05
8.018253e-05
7.9802669e-05
7.9167636e-05
7.8530889e-05
7.9578989e-05
8.9986538e-05
0.00013834557
0.00028336255
0.00052076146
7.7682937e-05
7.7682283e-05
7.767895e-05
7.7667083e-05
7.7631664e-05
7.7540855e-05
7.7335982e-05
7.6937064e-05
7.6323276e-05
7.5878109e-05
7.7696612e-05
9.0751816e-05
0.00014594134
0.00029659939
0.00051549302
7.5063349e-05
7.5062196e-05
7.5057404e-05
7.5042167e-05
7.4999765e-05
7.4896302e-05
7.4673418e-05
7.4262946e-05
7.369182e-05
7.3492783e-05
7.6225917e-05
9.2291049e-05
0.00015461944
0.000309816
0.00051107779
7.2609902e-05
7.2608172e-05
7.260173e-05
7.2582813e-05
7.2533118e-05
7.2417256e-05
7.2178869e-05
7.1765596e-05
7.1260831e-05
7.1367745e-05
7.5175079e-05
9.4629939e-05
0.00016427135
0.00032275576
0.00050745065
7.0307551e-05
7.0305165e-05
7.0296888e-05
7.0274015e-05
7.0216842e-05
7.0089161e-05
6.9838457e-05
6.94324e-05
6.9020131e-05
6.949887e-05
7.4557053e-05
9.7790946e-05
0.00017475428
0.00033519669
0.00050453
6.8142984e-05
6.8139863e-05
6.8129575e-05
6.8102519e-05
6.8037823e-05
6.7899244e-05
6.7640104e-05
6.7252585e-05
6.6961603e-05
6.7885016e-05
7.438916e-05
0.00010178904
0.0001858954
0.00034696444
0.00050222457
6.6104382e-05
6.6100451e-05
6.608799e-05
6.6056581e-05
6.5984475e-05
6.5836276e-05
6.5573296e-05
6.5217006e-05
6.5079053e-05
6.6528011e-05
7.4692423e-05
0.00010662718
0.00019750038
0.00035793856
0.00050043991
6.418122e-05
6.4176406e-05
6.4161633e-05
6.4125766e-05
6.4046535e-05
6.3890369e-05
6.3628889e-05
6.3317981e-05
6.3368113e-05
6.5432644e-05
7.5490606e-05
0.00011229203
0.00020936499
0.00036805173
0.00049908424
6.2364094e-05
6.2358333e-05
6.2341135e-05
6.230078e-05
6.2214894e-05
6.2052808e-05
6.1798947e-05
6.1549161e-05
6.182618e-05
6.4606648e-05
7.680889e-05
0.00011875054
0.00022128816
0.00037728353
0.00049807291
6.064458e-05
6.0637817e-05
6.0618111e-05
6.0573325e-05
6.0481451e-05
6.031591e-05
6.0076617e-05
5.9905429e-05
6.045239e-05
6.4060644e-05
7.8672186e-05
0.00012594803
0.00023308444
0.00038565069
0.00049733132
5.9015114e-05
5.9007302e-05
5.8985044e-05
5.8935977e-05
5.8838997e-05
5.8672904e-05
5.8456016e-05
5.8382826e-05
5.9247607e-05
6.380802e-05
8.1103079e-05
0.00013380822
0.00024459408
0.00039319634
0.00049679626
5.746888e-05
5.745999e-05
5.7435175e-05
5.7382083e-05
5.7281105e-05
5.7117831e-05
5.6932149e-05
5.6978499e-05
5.8214438e-05
6.3864707e-05
8.4119511e-05
0.00014223536
0.00025568959
0.00039997992
0.00049641599
5.599973e-05
5.5989745e-05
5.596242e-05
5.590567e-05
5.5802046e-05
5.5645466e-05
5.5500841e-05
5.5690669e-05
5.7357258e-05
6.424881e-05
8.773233e-05
0.0001511185
0.00026627829
0.00040606902
0.00049614946
5.4602101e-05
5.4591025e-05
5.4561286e-05
5.4501369e-05
5.4396714e-05
5.4251246e-05
5.4158685e-05
5.4518612e-05
5.6682234e-05
6.4980079e-05
9.1942942e-05
0.00016033718
0.00027630116
0.00041153335
0.00049596497
5.3270953e-05
5.3258808e-05
5.3226813e-05
5.3164353e-05
5.3060564e-05
5.2931212e-05
5.2903001e-05
5.3462663e-05
5.6197343e-05
6.6079181e-05
9.6741327e-05
0.00016976802
0.000285729
0.00041644086
0.00049583865
5.2001708e-05
5.198854e-05
5.1954511e-05
5.1890276e-05
5.1789556e-05
5.1681971e-05
5.1731808e-05
5.2524225e-05
5.5912363e-05
6.7566766e-05
0.00010210472
0.00017929137
0.00029455685
0.00042085544
0.00049575298
5.0790203e-05
5.0776083e-05
5.0740313e-05
5.067523e-05
5.0580113e-05
5.050065e-05
5.0643813e-05
5.1705789e-05
5.5838828e-05
6.9462331e-05
0.00010799714
0.00018879709
0.0003027979
0.00042483586
0.00049569544
4.9632648e-05
4.9617675e-05
4.9580534e-05
4.9515698e-05
4.942908e-05
4.9384875e-05
4.9638394e-05
5.1010966e-05
5.5989918e-05
7.1782922e-05
0.00011437
0.00019818901
0.00031047772
0.00042843533
0.0004956574
4.8525586e-05
4.8509888e-05
4.8471831e-05
4.8408525e-05
4.8333699e-05
4.8332748e-05
4.8715611e-05
5.0444524e-05
5.6380276e-05
7.4541728e-05
0.00012116371
0.00020738765
0.00031762942
0.0004317015
0.00049563313
4.7465859e-05
4.74496e-05
4.7411173e-05
4.7350883e-05
4.7291577e-05
4.7342831e-05
4.7876207e-05
5.0012417e-05
5.7025721e-05
7.7746681e-05
0.00012831013
0.00021633122
0.00032428982
0.00043467668
0.00049561908
4.6450583e-05
4.6433963e-05
4.6395814e-05
4.6340247e-05
4.6300671e-05
4.641414e-05
4.7121628e-05
4.9721817e-05
5.7942849e-05
8.1399168e-05
0.00013573579
0.0002249751
0.00033049682
0.00043739818
0.00049561324
4.5477121e-05
4.5460379e-05
4.5423267e-05
4.5374375e-05
4.5359268e-05
4.5546142e-05
4.6454049e-05
4.9581126e-05
5.9148509e-05
8.5493021e-05
0.00014336522
0.00023329015
0.00033628765
0.00043989867
0.00049561471
4.4543061e-05
4.4526479e-05
4.4491284e-05
4.4451289e-05
4.446598e-05
4.4738756e-05
4.5876394e-05
4.9599966e-05
6.065916e-05
9.0013884e-05
0.00015112441
0.00024126036
0.0003416978
0.00044220662
0.00049562332
4.3646195e-05
4.3630105e-05
4.359784e-05
4.3569259e-05
4.3619731e-05
4.3992365e-05
4.5392377e-05
4.9789137e-05
6.24901e-05
9.493909e-05
0.0001589437
0.0002488802
0.00034676053
0.00044434668
0.00049563932
4.2784505e-05
4.2769292e-05
4.2741115e-05
4.2726796e-05
4.2819756e-05
4.3307822e-05
4.500653e-05
5.0160522e-05
6.4654625e-05
0.00010023808
0.00016676014
0.00025615207
0.00035150661
0.00044634013
0.00049566327
4.1956147e-05
4.1942252e-05
4.1919486e-05
4.1922641e-05
4.2065604e-05
4.2686473e-05
4.4724242e-05
5.0726936e-05
6.7163133e-05
0.00010587333
0.000174519
0.00026308402
0.00035596426
0.0004482053
0.00049569579
4.1159436e-05
4.1147367e-05
4.1131511e-05
4.1155759e-05
4.1357136e-05
4.2130176e-05
4.4551788e-05
5.1501905e-05
7.0022252e-05
0.0001118018
0.0001821746
0.00026968789
0.00036015924
0.0004499579
0.00049573754
4.039284e-05
4.0383173e-05
4.0375928e-05
4.0425336e-05
4.0694537e-05
4.1641323e-05
4.4496351e-05
5.2499366e-05
7.3234058e-05
0.0001179766
0.00018969026
0.00027597785
0.00036411489
0.00045161145
0.00049578914
3.9654963e-05
3.9648355e-05
3.9651641e-05
3.9730781e-05
4.0078323e-05
4.1222872e-05
4.456603e-05
5.3733281e-05
7.6795461e-05
0.00012434896
0.00019703787
0.00028196938
0.00036785234
0.00045317753
0.00049585112
3.8944544e-05
3.8941738e-05
3.8957721e-05
3.9071722e-05
3.9509355e-05
4.0878378e-05
4.4769828e-05
5.5217167e-05
8.0697834e-05
0.00013087001
0.00020419698
0.00028767847
0.00037139065
0.00045466608
0.00049592389
3.8260447e-05
3.8262283e-05
3.8293404e-05
3.8448018e-05
3.8988856e-05
4.0612023e-05
4.5117612e-05
5.6963565e-05
8.4926923e-05
0.00013749256
0.00021115368
0.00029312117
0.00037474694
0.00045608564
0.00049600778
3.7601653e-05
3.7609082e-05
3.7658086e-05
3.7859757e-05
3.851843e-05
4.0428652e-05
4.5620027e-05
5.8983441e-05
8.9463088e-05
0.00014417246
0.0002178995
0.00029831319
0.00037793661
0.00045744356
0.00049610301
3.6967262e-05
3.6981351e-05
3.7051327e-05
3.7307273e-05
3.8100083e-05
4.0333799e-05
4.6288379e-05
6.128558e-05
9.4281843e-05
0.00015086965
0.0002244303
0.00030326971
0.00038097347
0.0004587462
0.00049620968
3.6356483e-05
3.6378439e-05
3.6472854e-05
3.6791149e-05
3.7736253e-05
4.0333719e-05
4.7134449e-05
6.3875988e-05
9.9354669e-05
0.00015754881
0.00023074528
0.00030800525
0.00038386992
0.00045999904
0.00049632782
3.5768637e-05
3.5799814e-05
3.5922562e-05
3.6312237e-05
3.7429828e-05
4.0435398e-05
4.817026e-05
6.6757357e-05
0.00010465003
0.00016417962
0.0002368462
0.00031253357
0.00038663711
0.00046120684
0.00049645738
3.5203153e-05
3.5245078e-05
3.5400526e-05
3.5871671e-05
3.7184185e-05
4.0646561e-05
4.9407778e-05
6.992865e-05
0.00011013449
0.00017073674
0.00024273673
0.00031686761
0.00038928505
0.00046237372
0.00049659825
3.4659571e-05
3.4713957e-05
3.4907005e-05
3.5470884e-05
3.7003216e-05
4.0975655e-05
5.0858556e-05
7.3384828e-05
0.00011577387
0.00017719951
0.00024842186
0.00032101952
0.00039182274
0.00046350331
0.00049675024
3.4137541e-05
3.4206315e-05
3.4442453e-05
3.5111633e-05
3.689136e-05
4.1431809e-05
5.2533328e-05
7.711677e-05
0.00012153433
0.00018355156
0.00025390757
0.00032500063
0.00039425831
0.00046459877
0.00049691315
3.3636827e-05
3.3722154e-05
3.4007531e-05
3.4796016e-05
3.6853632e-05
4.202476e-05
5.444157e-05
8.1111393e-05
0.00012738327
0.00018978031
0.00025920045
0.00032882148
0.00039659907
0.00046566288
0.00049708671
3.3157312e-05
3.3261621e-05
3.3603122e-05
3.4526503e-05
3.6895652e-05
4.2764747e-05
5.6591041e-05
8.5351974e-05
0.00013329012
0.00019587637
0.0002643075
0.00033249188
0.00039885165
0.00046669808
0.00049727064
3.2699001e-05
3.2825019e-05
3.3230344e-05
3.4305958e-05
3.7023662e-05
4.3662355e-05
5.8987347e-05
8.9818645e-05
0.00013922684
0.00020183314
0.00026923591
0.00033602091
0.00040102204
0.00046770655
0.00049746465
3.2262029e-05
3.2412818e-05
3.2890574e-05
3.4137672e-05
3.7244544e-05
4.4728319e-05
6.1633543e-05
9.4489034e-05
0.00014516825
0.00020764624
0.00027399293
0.00033941698
0.00040311567
0.0004686902
0.0004976684
3.1846672e-05
3.2025663e-05
3.2585463e-05
3.402539e-05
3.7565812e-05
4.5973276e-05
6.4529816e-05
9.9338985e-05
0.0001510922
0.00021331317
0.00027858578
0.0003426879
0.00040513747
0.00046965075
0.00049788159
3.1453353e-05
3.1664392e-05
3.2316961e-05
3.3973346e-05
3.7995598e-05
4.7407477e-05
6.7673271e-05
0.00010434331
0.00015697949
0.0002188329
0.00028302152
0.00034584086
0.00040709191
0.00047058967
0.00049810386
3.1082657e-05
3.1330051e-05
3.2087341e-05
3.3986287e-05
3.8542605e-05
4.9040455e-05
7.1057857e-05
0.00010947654
0.00016281382
0.00022420566
0.00028730706
0.00034888261
0.00040898324
0.00047150443
0.00049833478
3.0735342e-05
3.1023913e-05
3.1899229e-05
3.4069504e-05
3.9216044e-05
5.0880675e-05
7.4674423e-05
0.00011471357
0.00016858152
0.0002294326
0.00029144904
0.00035181928
0.00041081469
0.00047239509
0.00049857392
3.0412362e-05
3.0747498e-05
3.1755626e-05
3.4228858e-05
4.0025522e-05
5.2935171e-05
7.8510918e-05
0.00012003021
0.00017427131
0.00023451563
0.00029545382
0.00035465645
0.00041258916
0.00047326298
0.00049882072
3.0114877e-05
3.0502598e-05
3.1659948e-05
3.447079e-05
4.0980907e-05
5.520919e-05
8.2552715e-05
0.00012540365
0.00017987405
0.0002394572
0.00029932745
0.00035739924
0.00041430944
0.00047410994
0.00049907469
2.9844281e-05
3.0291301e-05
3.1616048e-05
3.4802331e-05
4.2092144e-05
5.7705879e-05
8.6783045e-05
0.00013081275
0.00018538245
0.00024426021
0.00030307579
0.00036005272
0.00041597758
0.00047493655
0.00049933533
2.9602222e-05
3.0116018e-05
3.1628258e-05
3.5231097e-05
4.3369035e-05
6.0426034e-05
9.1183497e-05
0.00013623823
0.00019079084
0.0002489279
0.0003067044
0.00036262136
0.00041759507
0.0004757437
0.0004996022
2.9390632e-05
2.9979518e-05
3.1701411e-05
3.5765256e-05
4.4820986e-05
6.3367922e-05
9.5734553e-05
0.00014166275
0.00019609495
0.00025346371
0.00031021848
0.00036510897
0.00041916385
0.00047653281
0.00049987497
2.9211752e-05
2.9884957e-05
3.1840876e-05
3.6413483e-05
4.6456714e-05
6.6527208e-05
0.00010041612
0.00014707092
0.00020129169
0.00025787118
0.00031362286
0.00036751908
0.0004206863
0.00047730517
0.00050015338
2.9068173e-05
2.9835914e-05
3.2052585e-05
3.7184881e-05
4.8283943e-05
6.9896987e-05
0.00010520801
0.00015244925
0.00020637896
0.00026215396
0.00031692221
0.00036985506
0.00042216445
0.00047806217
0.00050043719
2.8962864e-05
2.983643e-05
3.2343048e-05
3.8088868e-05
5.0309093e-05
7.3467921e-05
0.0001100904
0.000157786
0.00021135552
0.00026631583
0.00032012126
0.00037211981
0.00042359913
0.00047880562
0.00050072626
2.8899216e-05
2.9891045e-05
3.2719366e-05
3.9135038e-05
5.2536982e-05
7.7228479e-05
0.00011504418
0.00016307111
0.00021622086
0.00027036047
0.00032322386
0.00037431555
0.00042499291
0.00047953643
0.00050102045
2.8881085e-05
3.0004833e-05
3.3189225e-05
4.033297e-05
5.4970562e-05
8.1165256e-05
0.00012005122
0.00016829599
0.000220975
0.00027429141
0.00032623356
0.000376445
0.00042634808
0.00048025515
0.00050131956
2.8912833e-05
3.0183445e-05
3.3760879e-05
4.1692019e-05
5.7610706e-05
8.5263342e-05
0.00012509457
0.00017345342
0.0002256184
0.00027811204
0.00032915375
0.00037851106
0.00042766671
0.00048096221
0.00050162339
2.8999377e-05
3.0433137e-05
3.4443103e-05
4.3221058e-05
6.0456063e-05
8.9506729e-05
0.00013015861
0.00017853738
0.00023015208
0.00028182627
0.00033198821
0.00038051434
0.00042895117
0.00048165834
0.00050193171
2.9146236e-05
3.0760803e-05
3.5245122e-05
4.4928207e-05
6.3503001e-05
9.3878721e-05
0.00013522904
0.00018354294
0.00023457725
0.00028543721
0.00033473902
0.00038245809
0.00043020316
0.00048234416
0.00050224435
2.9359579e-05
3.117399e-05
3.6176513e-05
4.6820543e-05
6.6745631e-05
9.8362318e-05
0.00014029295
0.00018846608
0.00023889526
0.00028894769
0.00033740883
0.00038434523
0.00043142403
0.00048302015
0.00050256109
2.9646266e-05
3.1680913e-05
3.7247061e-05
4.8903817e-05
7.0175922e-05
0.00010294057
0.00014533875
0.00019330354
0.00024310755
0.00029236047
0.00034000055
0.00038617839
0.00043261497
0.00048368664
0.00050288175
3.0013892e-05
3.2290437e-05
3.846659e-05
5.1182184e-05
7.3783898e-05
0.00010759686
0.00015035613
0.00019805293
0.00024721633
0.00029567926
0.00034251469
0.00038796026
0.00043377733
0.00048434397
0.00050320612
3.0470812e-05
3.3012049e-05
3.9844741e-05
5.365797e-05
7.7557894e-05
0.00011231517
0.000155336
0.00020271238
0.00025122316
0.00029890553
0.00034495486
0.00038969296
0.00043491233
0.00048499245
0.00050353399
3.1026165e-05
3.3855796e-05
4.1390732e-05
5.6331494e-05
8.1484859e-05
0.00011708024
0.0001602703
0.00020728038
0.00025512949
0.00030204145
0.0003473242
0.00039137835
0.00043602101
0.00048563232
0.00050386515
3.1689865e-05
3.4832187e-05
4.311308e-05
5.920096e-05
8.5550688e-05
0.0001218777
0.00016515204
0.00021175602
0.00025893727
0.00030508873
0.00034962558
0.00039301816
0.00043710426
0.00048626381
0.00050419941
3.2472577e-05
3.5952061e-05
4.5019306e-05
6.2262415e-05
8.9740552e-05
0.00012669414
0.00016997519
0.00021613893
0.00026264862
0.00030804854
0.00035186164
0.00039461414
0.00043816296
0.00048688707
0.00050453657
3.3385656e-05
3.7226398e-05
4.7115645e-05
6.5509801e-05
9.4039216e-05
0.00013151716
0.00017473443
0.00022042848
0.00026626415
0.00031092421
0.00035403467
0.00039616786
0.00043919787
0.00048750226
0.00050487642
3.4441038e-05
3.8666097e-05
4.940676e-05
6.8935068e-05
9.8431322e-05
0.00013633533
0.00017942507
0.00022462417
0.00026978518
0.00031371867
0.00035614674
0.0003976807
0.00044020971
0.00048810949
0.00050521875
3.5651088e-05
4.0281702e-05
5.1895498e-05
7.2528366e-05
0.00010290166
0.0001411383
0.00018404362
0.00022872735
0.00027321098
0.00031643455
0.00035819988
0.00039915397
0.00044119909
0.00048870883
0.00050556338
3.7028379e-05
4.2083082e-05
5.4582687e-05
7.6278284e-05
0.00010743537
0.0001459166
0.00018858651
0.00023273678
0.00027654418
0.00031907418
0.00036019599
0.00040058887
0.00044216659
0.00048930035
0.0005059101
3.8585407e-05
4.4079093e-05
5.7467006e-05
8.0172117e-05
0.00011201805
0.00015066152
0.0001930504
0.00023665196
0.00027978724
0.00032163972
0.00036213677
0.00040198648
0.00044311273
0.00048988409
0.00050625871
4.0334243e-05
4.6277217e-05
6.0544919e-05
8.4196178e-05
0.00011663601
0.00015536565
0.00019743413
0.00024047079
0.00028294228
0.00032413323
0.00036402379
0.0004033478
0.00044403795
0.00049046006
0.00050660902
4.2286114e-05
4.86832e-05
6.3810699e-05
8.8336073e-05
0.00012127621
0.0001600218
0.00020173415
0.00024419433
0.00028601123
0.00032655662
0.00036585852
0.00040467374
0.00044494266
0.00049102826
0.00050696084
4.4450939e-05
5.1300729e-05
6.7256515e-05
9.2576962e-05
0.00012592629
0.00016462343
0.00020594724
0.0002478239
0.0002889959
0.00032891168
0.0003676423
0.00040596513
0.00044582723
0.00049158867
0.00050731397
4.6836834e-05
5.4131143e-05
7.0872612e-05
9.6903911e-05
0.00013057507
0.00016916604
0.00021006925
0.00025136053
0.00029189803
0.00033120002
0.00036937635
0.00040722272
0.00044669195
0.00049214125
0.00050766822
4.9449612e-05
5.7173214e-05
7.4647496e-05
0.00010130192
0.00013521145
0.00017364253
0.00021409967
0.00025480521
0.00029471921
0.00033342317
0.0003710618
0.00040844717
0.00044753711
0.00049268595
0.00050802341
5.2292334e-05
6.0423031e-05
7.8568272e-05
0.00010575655
0.00013982658
0.00017804535
0.00021803774
0.00025815887
0.00029746093
0.00033558251
0.00037269967
0.0004096391
0.00044836292
0.0004932227
0.00050837935
5.5364918e-05
6.3873942e-05
8.2620809e-05
0.00011025333
0.00014440999
0.00018236979
0.00022188278
0.00026142243
0.00030012457
0.0003376793
0.00037429089
0.00041079903
0.00044916958
0.00049375142
0.00050873586
5.8663892e-05
6.7516683e-05
8.6790352e-05
0.00011477958
0.00014894997
0.00018661223
0.00022563418
0.00026459671
0.00030271136
0.00033971468
0.00037583627
0.00041192745
0.00044995724
0.00049427201
0.00050909275
6.2182271e-05
7.1339514e-05
9.1061495e-05
0.0001193206
0.00015343764
0.00019076929
0.00022929138
0.00026768248
0.00030522245
0.00034168968
0.00037733656
0.00041302475
0.00045072601
0.00049478436
0.00050944984
6.5909665e-05
7.5328668e-05
9.5419013e-05
0.00012386104
0.00015786539
0.00019483785
0.0002328539
0.00027068042
0.00030765883
0.00034360521
0.0003787924
0.00041409127
0.00045147598
0.00049528833
0.00050980694
6.9832836e-05
7.9468875e-05
9.984444e-05
0.00012838819
0.00016222621
0.00019881508
0.00023632126
0.00027359111
0.00031002139
0.00034546206
0.00038020433
0.00041512729
0.00045220717
0.00049578379
0.00051016387
7.3934995e-05
8.3741305e-05
0.0001043206
0.00013289006
0.00016651363
0.00020269836
0.00023969299
0.00027641504
0.00031231088
0.00034726091
0.00038157282
0.00041613302
0.00045291958
0.00049627057
0.00051052044
7.8196116e-05
8.8125991e-05
0.00010883061
0.00013735544
0.00017072167
0.00020648527
0.0002429686
0.00027915259
0.00031452794
0.00034900233
0.00038289823
0.00041710862
0.00045361316
0.00049674849
0.00051087647
8.2594001e-05
9.2602106e-05
0.00011335802
0.00014177384
0.00017484487
0.00021017356
0.00024614761
0.00028180407
0.00031667309
0.00035068676
0.00038418085
0.00041805415
0.00045428784
0.00049721733
0.00051123175
8.7104947e-05
9.714838e-05
0.00011788696
0.00014613552
0.00017887819
0.00021376113
0.00024922951
0.00028436965
0.00031874671
0.00035231456
0.00038542084
0.00041896964
0.00045494348
0.00049767688
0.00051158609
9.1704403e-05
0.00010174351
0.00012240225
0.00015043142
0.00018281704
0.00021724608
0.00025221376
0.00028684943
0.00032074907
0.00035388593
0.00038661831
0.00041985503
0.00045557991
0.00049812687
0.00051193928
9.6367599e-05
0.00010636653
0.00012688945
0.00015465323
0.00018665724
0.00022062662
0.00025509984
0.00028924342
0.00032268034
0.00035540102
0.00038777326
0.00042071019
0.00045619689
0.00049856702
0.00051229109
0.00010107011
0.00011099714
0.000131335
0.00015879328
0.00019039501
0.00022390114
0.00025788722
0.00029155155
0.00032454056
0.00035685982
0.00038888561
0.00042153494
0.00045679415
0.00049899701
0.00051264129
0.00010578832
0.00011561596
0.00013572623
0.00016284463
0.00019402698
0.00022706819
0.00026057536
0.00029377368
0.00032632971
0.00035826227
0.0003899552
0.00042232902
0.00045737139
0.00049941652
0.00051298966
0.00011049985
0.0001202048
0.00014005145
0.00016680099
0.00019755016
0.0002301265
0.00026316379
0.00029590962
0.00032804766
0.00035960821
0.00039098177
0.00042309211
0.00045792823
0.00049982516
0.00051333592
0.00011518381
0.00012474677
0.00014429994
0.00017065673
0.00020096196
0.00023307496
0.00026565206
0.00029795917
0.00032969423
0.00036089739
0.00039196501
0.00042382383
0.00045846426
0.00050022254
0.00051367981
0.00011982106
0.00012922644
0.00014846204
0.00017440687
0.00020426018
0.0002359127
0.0002680398
0.00029992208
0.00033126917
0.0003621295
0.00039290456
0.00042452376
0.00045897903
0.00050060824
0.00051402106
0.00012439427
0.00013362991
0.00015252906
0.00017804708
0.00020744299
0.00023863901
0.00027032671
0.00030179816
0.00033277223
0.0003633042
0.00039379997
0.00042519141
0.00045947207
0.0005009818
0.00051435936
0.00012888805
0.00013794483
0.0001564934
0.00018157363
0.00021050893
0.00024125345
0.00027251263
0.00030358722
0.00033420311
0.0003644211
0.00039465077
0.00042582628
0.00045994285
0.00050134276
0.00051469442
0.00013328891
0.00014216035
0.00016034841
0.00018498343
0.00021345695
0.00024375576
0.00027459751
0.00030528912
0.00033556156
0.0003654798
0.00039545649
0.00042642783
0.00046039084
0.00050169063
0.0005150259
0.00013758519
0.00014626719
0.00016408845
0.00018827396
0.00021628634
0.00024614596
0.00027658143
0.00030690383
0.00033684733
0.0003664799
0.0003962166
0.0004269955
0.00046081549
0.00050202491
0.00051535348
0.00014176708
0.00015025745
0.00016770882
0.00019144327
0.00021899675
0.00024842428
0.00027846466
0.0003084314
0.00033806024
0.00036742102
0.00039693062
0.00042752873
0.00046121624
0.00050234511
0.00051567683
0.00014582638
0.00015412464
0.00017120574
0.00019448995
0.00022158819
0.0002505912
0.00028024761
0.00030987197
0.00033920017
0.00036830283
0.00039759805
0.00042802696
0.00046159253
0.00050265073
0.00051599558
0.00014975651
0.00015786354
0.00017457624
0.00019741312
0.00022406097
0.00025264745
0.00028193089
0.00031122586
0.00034026709
0.00036912504
0.00039821846
0.00042848969
0.00046194384
0.00050294127
0.00051630938
0.0001535523
0.0001614701
0.00017781818
0.00020021236
0.00022641575
0.00025459398
0.0002835153
0.0003124935
0.00034126109
0.00036988745
0.00039879144
0.0004289164
0.00046226964
0.00050321627
0.00051661789
0.00015720987
0.00016494137
0.00018093014
0.00020288773
0.00022865348
0.00025643195
0.00028500179
0.00031367546
0.00034218236
0.00037058996
0.00039931668
0.00042930667
0.00046256946
0.00050347527
0.00051692073
0.00016072654
0.00016827536
0.00018391139
0.00020543971
0.00023077536
0.00025816278
0.00028639154
0.00031477252
0.00034303123
0.00037123254
0.00039979393
0.0004296601
0.00046284287
0.00050371786
0.00051721756
0.00016410064
0.00017147096
0.00018676179
0.00020786914
0.00023278288
0.00025978806
0.00028768587
0.00031578556
0.00034380818
0.0003718153
0.00040022303
0.0004299764
0.0004630895
0.00050394366
0.00051750801
0.00016733144
0.00017452787
0.00018948178
0.00021017724
0.00023467776
0.00026130957
0.00028888631
0.00031671567
0.00034451381
0.00037233848
0.00040060394
0.00043025533
0.00046330902
0.00050415232
0.00051779174
0.00017041901
0.00017744643
0.00019207228
0.00021236554
0.00023646191
0.00026272927
0.00028999453
0.00031756407
0.0003451489
0.00037280243
0.00040093671
0.00043049676
0.00046350121
0.00050434357
0.00051806842
0.00017336411
0.00018022761
0.00019453464
0.00021443585
0.00023813747
0.00026404929
0.00029101236
0.00031833216
0.00034571435
0.00037320766
0.00040122153
0.00043070065
0.00046366589
0.00050451716
0.00051833773
0.00017616809
0.0001828729
0.00019687061
0.00021639023
0.00023970671
0.00026527188
0.00029194177
0.00031902145
0.00034621122
0.0003735548
0.0004014587
0.00043086709
0.00046380299
0.00050467293
0.00051859935
0.00017883282
0.00018538421
0.00019908225
0.00021823097
0.00024117206
0.00026639941
0.00029278486
0.00031963363
0.00034664072
0.00037384462
0.00040164865
0.00043099623
0.00046391251
0.00050481075
0.00051885298
0.00018136059
0.00018776384
0.0002011719
0.00021996052
0.00024253608
0.00026743439
0.00029354386
0.00032017049
0.00034700417
0.00037407804
0.00040179194
0.00043108838
0.00046399456
0.00050493058
0.00051909837
0.00018375403
0.0001900144
0.00020314216
0.00022158151
0.00024380143
0.00026837937
0.00029422105
0.00032063395
0.00034730306
0.00037425608
0.00040188923
0.00043114393
0.00046404933
0.00050503243
0.00051933525
0.00018601608
0.00019213874
0.0002049958
0.00022309669
0.00024497086
0.00026923702
0.00029481886
0.00032102602
0.00034753897
0.00037437993
0.00040194135
0.0004311634
0.00046407709
0.00050511639
0.0005195634
0.0001881499
0.00019413994
0.00020673575
0.00022450892
0.00024604719
0.00027001004
0.00029533974
0.00032134882
0.00034771359
0.00037445087
0.00040194922
0.0004311474
0.00046407823
0.00050518259
0.00051978262
0.00019015882
0.00019602122
0.00020836508
0.00022582112
0.00024703326
0.00027070117
0.00029578623
0.00032160455
0.00034782873
0.0003744703
0.00040191386
0.00043109667
0.0004640532
0.00050523126
0.00051999271
0.00019204631
0.00019778593
0.00020988694
0.00022703631
0.00024793199
0.00027131321
0.00029616089
0.00032179547
0.00034788627
0.00037443972
0.00040183643
0.00043101204
0.00046400257
0.00050526266
0.00052019354
0.00019381596
0.00019943753
0.00021130455
0.00022815753
0.0002487463
0.00027184895
0.00029646634
0.00032192389
0.00034788818
0.00037436074
0.00040171818
0.00043089443
0.00046392696
0.00050527713
0.00052038497
0.00019547142
0.00020097951
0.0002126212
0.00022918783
0.00024947912
0.00027231121
0.0002967052
0.00032199218
0.0003478365
0.00037423503
0.00040156044
0.00043074487
0.00046382708
0.00050527506
0.00052056691
0.00019701636
0.00020241542
0.00021384018
0.00023013032
0.00025013338
0.00027270278
0.00029688011
0.00032200274
0.00034773333
0.00037406437
0.00040136463
0.00043056445
0.00046370374
0.00050525691
0.0005207393
0.00019845451
0.00020374882
0.00021496481
0.00023098806
0.00025071201
0.00027302649
0.00029699372
0.000321958
0.00034758081
0.00037385057
0.00040113228
0.00043035436
0.00046355778
0.00050522317
0.00052090208
0.00019978958
0.00020498329
0.00021599841
0.00023176415
0.00025121792
0.0002732851
0.00029704868
0.0003218604
0.00034738112
0.00037359552
0.00040086493
0.00043011585
0.00046339013
0.00050517439
0.00052105526
0.00020102527
0.00020612237
0.00021694428
0.00023246163
0.000251654
0.00027348139
0.00029704762
0.00032171239
0.00034713647
0.00037330115
0.00040056422
0.00042985023
0.00046320176
0.00050511116
0.00052119885
0.00020216526
0.00020716961
0.00021780571
0.00023308355
0.00025202311
0.0002736181
0.00029699315
0.00032151643