/*--------------------------------*- C++ -*----------------------------------*\
| =========                 |                                                 |
| \\      /  F ield         | OpenFOAM: The Open Source CFD Toolbox           |
|  \\    /   O peration     | Version:  2506                                  |
|   \\  /    A nd           | Website:  www.openfoam.com                      |
|    \\/     M anipulation  |                                                 |
\*---------------------------------------------------------------------------*/
FoamFile
{
    version     2.0;
    format      ascii;
    arch        "LSB;label=32;scalar=64";
    class       volScalarField;
    location    "26000/water";
    object      nut;
}
// * * * * * * * * * * * * * * * * * * * * * * * * * * * * * * * * * * * * * //

dimensions      [0 2 -1 0 0 0 0];

internalField   nonuniform List<scalar> 
6000
(
4.1367308e-05
4.1367285e-05
4.1367292e-05
4.1367317e-05
4.136735e-05
4.1367394e-05
4.1367445e-05
4.1367477e-05
4.1367269e-05
4.1365028e-05
4.1345959e-05
4.1185428e-05
3.984402e-05
3.0619188e-05
1.3489073e-05
4.0862094e-05
4.0862089e-05
4.0862128e-05
4.0862206e-05
4.086231e-05
4.0862441e-05
4.0862573e-05
4.0862525e-05
4.0861044e-05
4.0849566e-05
4.0769767e-05
4.0233638e-05
3.6930279e-05
2.3809326e-05
1.5168915e-05
4.0408426e-05
4.0408431e-05
4.0408496e-05
4.0408619e-05
4.040878e-05
4.0408965e-05
4.0409066e-05
4.0408421e-05
4.0403049e-05
4.0369314e-05
4.0169922e-05
3.9053519e-05
3.3674827e-05
1.9530254e-05
1.6389796e-05
3.9998212e-05
3.9998216e-05
3.9998298e-05
3.9998456e-05
3.9998657e-05
3.9998846e-05
3.9998699e-05
3.999645e-05
3.9982628e-05
3.9907469e-05
3.9519874e-05
3.7665236e-05
3.0439418e-05
1.6813321e-05
1.7227565e-05
3.9625122e-05
3.9625133e-05
3.9625231e-05
3.9625419e-05
3.9625638e-05
3.9625739e-05
3.9624947e-05
3.9619415e-05
3.959045e-05
3.9450123e-05
3.8807695e-05
3.6131535e-05
2.7477322e-05
1.5090355e-05
1.7763765e-05
3.9283984e-05
3.9284007e-05
3.9284119e-05
3.9284324e-05
3.9284521e-05
3.9284369e-05
3.9282279e-05
3.9270986e-05
3.9218236e-05
3.8986823e-05
3.8033859e-05
3.4524992e-05
2.4897642e-05
1.400968e-05
1.8072537e-05
3.8970512e-05
3.8970546e-05
3.8970668e-05
3.8970871e-05
3.8970973e-05
3.8970306e-05
3.8965958e-05
3.8945612e-05
3.8858945e-05
3.8510812e-05
3.7207229e-05
3.2908964e-05
2.2716803e-05
1.3360893e-05
1.8215906e-05
3.8681158e-05
3.8681199e-05
3.8681323e-05
3.8681493e-05
3.8681392e-05
3.8679823e-05
3.8671916e-05
3.8638477e-05
3.8506919e-05
3.801881e-05
3.6341286e-05
3.1331232e-05
2.0908463e-05
1.30184e-05
1.8243034e-05
3.841296e-05
3.8413006e-05
3.8413119e-05
3.8413209e-05
3.8412743e-05
3.8409742e-05
3.8396631e-05
3.8345462e-05
3.8157885e-05
3.7510375e-05
3.5450851e-05
2.9823717e-05
1.9431977e-05
1.2906145e-05
1.8191421e-05
3.816343e-05
3.8163474e-05
3.8163556e-05
3.8163497e-05
3.8162446e-05
3.8157327e-05
3.8137042e-05
3.8063106e-05
3.7808869e-05
3.6987081e-05
3.454982e-05
2.8405299e-05
1.8246291e-05
1.2977275e-05
1.8088864e-05
3.7930458e-05
3.7930491e-05
3.7930513e-05
3.793021e-05
3.7928279e-05
3.7920197e-05
3.7890497e-05
3.7788579e-05
3.7458031e-05
3.6451747e-05
3.3649968e-05
2.7085594e-05
1.7315649e-05
1.3202296e-05
1.7955551e-05
3.7712242e-05
3.7712253e-05
3.7712173e-05
3.7711499e-05
3.7708322e-05
3.7696279e-05
3.7654711e-05
3.7519641e-05
3.7104472e-05
3.5907781e-05
3.2760531e-05
2.58684e-05
1.6611172e-05
1.3561911e-05
1.7805936e-05
3.7507239e-05
3.7507212e-05
3.7506973e-05
3.7505765e-05
3.7500895e-05
3.7483757e-05
3.7427744e-05
3.725459e-05
3.6748014e-05
3.5358688e-05
3.188827e-05
2.4754408e-05
1.6110613e-05
1.4042468e-05
1.7650267e-05
3.7314115e-05
3.7314026e-05
3.7313557e-05
3.7311613e-05
3.7304527e-05
3.7281048e-05
3.7207963e-05
3.6992195e-05
3.6389e-05
3.4807726e-05
3.1037799e-05
2.3743174e-05
1.5797412e-05
1.4632945e-05
1.7495753e-05
3.7131708e-05
3.713153e-05
3.7130739e-05
3.7127817e-05
3.7117921e-05
3.7086772e-05
3.6994026e-05
3.6731629e-05
3.6028109e-05
3.4257704e-05
3.0212055e-05
2.2834479e-05
1.5659519e-05
1.5322866e-05
1.7347423e-05
3.6959006e-05
3.6958703e-05
3.6957478e-05
3.6953298e-05
3.6939934e-05
3.6899735e-05
3.6784847e-05
3.64724e-05
3.5666203e-05
3.3710866e-05
2.9412801e-05
2.2029191e-05
1.5688155e-05
1.6100896e-05
1.7208725e-05
3.6795116e-05
3.6794645e-05
3.6792855e-05
3.6787094e-05
3.6769555e-05
3.6718912e-05
3.6579574e-05
3.6214282e-05
3.5304204e-05
3.3168861e-05
2.8641157e-05
2.1329739e-05
1.5876569e-05
1.6954009e-05
1.7081944e-05
3.6639251e-05
3.6638559e-05
3.6636051e-05
3.6628355e-05
3.6605895e-05
3.6543431e-05
3.637756e-05
3.5957252e-05
3.4942996e-05
3.2632763e-05
2.789813e-05
2.0740252e-05
1.6218811e-05
1.786721e-05
1.6968459e-05
3.6490711e-05
3.6489738e-05
3.6486338e-05
3.6476321e-05
3.6448171e-05
3.6372563e-05
3.6178336e-05
3.5701433e-05
3.458336e-05
3.2103134e-05
2.7185145e-05
2.0266398e-05
1.6708561e-05
1.8823777e-05
1.6868922e-05
3.6348869e-05
3.6347546e-05
3.6343063e-05
3.6330312e-05
3.62957e-05
3.6205706e-05
3.5981587e-05
3.5447046e-05
3.4225914e-05
3.1580129e-05
2.6504571e-05
1.991497e-05
1.7338099e-05
1.9805967e-05
1.6783376e-05
3.6213165e-05
3.6211415e-05
3.6205638e-05
3.6189726e-05
3.6147887e-05
3.6042373e-05
3.5787125e-05
3.5194368e-05
3.3871092e-05
3.1063631e-05
2.5860194e-05
1.9693245e-05
1.8097487e-05
2.0796033e-05
1.6711346e-05
3.6083093e-05
3.6080831e-05
3.6073537e-05
3.6054024e-05
3.6004223e-05
3.5882185e-05
3.5594869e-05
3.4943693e-05
3.3519118e-05
3.0553441e-05
2.5257605e-05
1.96082e-05
1.8974102e-05
2.1777346e-05
1.6651939e-05
3.5958194e-05
3.5955329e-05
3.5946284e-05
3.592273e-05
3.5864274e-05
3.5724854e-05
3.5404824e-05
3.4695304e-05
3.3170007e-05
3.0049498e-05
2.4704419e-05
1.9665646e-05
1.9952579e-05
2.2735414e-05
1.660395e-05
3.5838054e-05
3.5834489e-05
3.582345e-05
3.5795422e-05
3.5727676e-05
3.5570179e-05
3.521706e-05
3.444945e-05
3.2823581e-05
2.9552162e-05
2.4210265e-05
1.9869402e-05
2.1015193e-05
2.3658589e-05
1.6565971e-05
3.5722292e-05
3.5717927e-05
3.5704651e-05
3.5671733e-05
3.5594133e-05
3.5418031e-05
3.50317e-05
3.4206321e-05
3.2479493e-05
2.9062524e-05
2.3786503e-05
2.022057e-05
2.2142641e-05
2.4538397e-05
1.6536511e-05
3.5610563e-05
3.5605296e-05
3.558954e-05
3.5551342e-05
3.5463408e-05
3.5268352e-05
3.48489e-05
3.3966035e-05
3.2137286e-05
2.858275e-05
2.3445668e-05
2.0717024e-05
2.3315071e-05
2.5369467e-05
1.6514097e-05
3.5502551e-05
3.549628e-05
3.5477808e-05
3.5433974e-05
3.5335321e-05
3.5121137e-05
3.466884e-05
3.3728621e-05
3.1796463e-05
2.8116417e-05
2.3200675e-05
2.1353141e-05
2.4513224e-05
2.6149157e-05
1.6497357e-05
3.5397967e-05
3.539059e-05
3.536918e-05
3.5319398e-05
3.5209747e-05
3.4976437e-05
3.4491706e-05
3.3494016e-05
3.14566e-05
2.7668794e-05
2.3063903e-05
2.2119832e-05
2.5719464e-05
2.6877011e-05
1.6485071e-05
3.5296546e-05
3.5287966e-05
3.5263414e-05
3.5207424e-05
3.5086609e-05
3.4834344e-05
3.4317681e-05
3.3262058e-05
3.1117487e-05
2.7247026e-05
2.3046253e-05
2.3004861e-05
2.6918581e-05
2.7554165e-05
1.6476201e-05
3.5198047e-05
3.5188175e-05
3.5160297e-05
3.5097901e-05
3.4965875e-05
3.4694991e-05
3.4146934e-05
3.3032492e-05
3.0779305e-05
2.6860148e-05
2.3156315e-05
2.3993437e-05
2.8098247e-05
2.8182808e-05
1.6469894e-05
3.5102251e-05
3.5091004e-05
3.5059649e-05
3.4990715e-05
3.4847558e-05
3.4558539e-05
3.3979609e-05
3.2804987e-05
3.0442844e-05
2.6518902e-05
2.3399716e-05
2.5069007e-05
2.9249138e-05
2.8765761e-05
1.6465472e-05
3.5008959e-05
3.4996268e-05
3.4961317e-05
3.488579e-05
3.4731711e-05
3.4425177e-05
3.3815813e-05
3.2579164e-05
3.0109732e-05
2.6235323e-05
2.3778717e-05
2.6214168e-05
3.0364755e-05
2.9306158e-05
1.646241e-05
3.4917993e-05
3.4903801e-05
3.4865175e-05
3.4783085e-05
3.4618425e-05
3.4295113e-05
3.3655609e-05
3.235464e-05
2.9782687e-05
2.6022142e-05
2.429206e-05
2.7411591e-05
3.1441033e-05
2.9807247e-05
1.6460314e-05
3.4829195e-05
3.4813462e-05
3.4771128e-05
3.4682592e-05
3.4507829e-05
3.416857e-05
3.3499011e-05
3.2131095e-05
2.9465731e-05
2.589204e-05
2.4935073e-05
2.8644859e-05
3.2475855e-05
3.0272255e-05
1.6458891e-05
3.4742423e-05
3.4725129e-05
3.4679107e-05
3.4584339e-05
3.4400083e-05
3.4045774e-05
3.3345975e-05
3.1908364e-05
2.9164363e-05
2.5856857e-05
2.5699992e-05
2.9899124e-05
3.3468558e-05
3.0704314e-05
1.6457936e-05
3.465756e-05
3.4638706e-05
3.4589068e-05
3.4488387e-05
3.4295378e-05
3.3926957e-05
3.3196403e-05
3.1686556e-05
2.8885628e-05
2.5926838e-05
2.6576457e-05
3.1161549e-05
3.4419485e-05
3.1106401e-05
1.6457305e-05
3.4574503e-05
3.4554114e-05
3.4500999e-05
3.4394828e-05
3.4193938e-05
3.381234e-05
3.3050148e-05
3.1466195e-05
2.8638064e-05
2.6110009e-05
2.7552149e-05
3.2421503e-05
3.5329636e-05
3.1481314e-05
1.6456902e-05
3.4493171e-05
3.4471301e-05
3.4414911e-05
3.4303789e-05
3.409601e-05
3.3702133e-05
3.2907027e-05
3.124839e-05
2.8431493e-05
2.6411718e-05
2.8613484e-05
3.3670556e-05
3.620041e-05
3.1831644e-05
1.6456669e-05
3.4413502e-05
3.4390234e-05
3.4330848e-05
3.4215429e-05
3.4001867e-05
3.3596524e-05
3.2766849e-05
3.1035014e-05
2.8276658e-05
2.6834393e-05
2.9746333e-05
3.4902298e-05
3.7033431e-05
3.2159762e-05
1.6456572e-05
3.4335456e-05
3.4310905e-05
3.4248878e-05
3.4129939e-05
3.3911801e-05
3.3495676e-05
3.2629453e-05
3.0828885e-05
2.8184731e-05
2.7377502e-05
3.0936681e-05
3.611207e-05
3.7830439e-05
3.2467823e-05
1.6456596e-05
3.4259011e-05
3.423333e-05
3.4169102e-05
3.4047543e-05
3.3826124e-05
3.3399718e-05
3.2494766e-05
3.0633923e-05
2.8166733e-05
2.8037694e-05
3.2171194e-05
3.7296637e-05
3.8593223e-05
3.2757763e-05
1.6456739e-05
3.4184168e-05
3.4157548e-05
3.409165e-05
3.3968498e-05
3.3745158e-05
3.3308744e-05
3.236288e-05
3.0455255e-05
2.8232927e-05
2.8809107e-05
3.3437649e-05
3.8453879e-05
3.9323576e-05
3.3031311e-05
1.6457005e-05
3.4110952e-05
3.4083626e-05
3.4016682e-05
3.3893092e-05
3.3669236e-05
3.3222813e-05
3.2234152e-05
3.0299253e-05
2.8392246e-05
2.9683789e-05
3.4725212e-05
3.9582513e-05
4.0023268e-05
3.3290007e-05
1.6457402e-05
3.4039411e-05
3.4011658e-05
3.3944392e-05
3.3821645e-05
3.3598692e-05
3.3141955e-05
3.210932e-05
3.0173466e-05
2.865182e-05
3.0652194e-05
3.602457e-05
4.0681866e-05
4.0694024e-05
3.3535218e-05
1.6457942e-05
3.3969616e-05
3.3941763e-05
3.3875008e-05
3.3754507e-05
3.3533858e-05
3.306618e-05
3.1989642e-05
3.0086445e-05
2.9016624e-05
3.1703716e-05
3.7327931e-05
4.1751708e-05
4.1337505e-05
3.3768154e-05
1.6458635e-05
3.3901667e-05
3.3874095e-05
3.3808792e-05
3.3692059e-05
3.3475059e-05
3.2995506e-05
3.1877039e-05
3.0047452e-05
2.9489289e-05
3.2827215e-05
3.8628933e-05
4.279213e-05
4.1955296e-05
3.3989885e-05
1.6459492e-05
3.3835691e-05
3.3808835e-05
3.3746042e-05
3.3634709e-05
3.3422602e-05
3.292999e-05
3.1774236e-05
3.0066077e-05
3.0070055e-05
3.40115e-05
3.9922485e-05
4.3803454e-05
4.2548899e-05
3.4201362e-05
1.646052e-05
3.3771846e-05
3.3746203e-05
3.3687095e-05
3.358289e-05
3.3376777e-05
3.286978e-05
3.1684884e-05
3.0151789e-05
3.0756881e-05
3.5245739e-05
4.1204579e-05
4.4786175e-05
4.3119726e-05
3.4403426e-05
1.6461728e-05
3.3710322e-05
3.3686449e-05
3.3632325e-05
3.3537056e-05
3.3337852e-05
3.2815179e-05
3.1613636e-05
3.0313464e-05
3.1545656e-05
3.6519776e-05
4.247211e-05
4.5740918e-05
4.36691e-05
3.4596826e-05
1.6463121e-05
3.3651343e-05
3.3629867e-05
3.3582146e-05
3.3497682e-05
3.3306071e-05
3.2766735e-05
3.1566174e-05
3.0558941e-05
3.2430515e-05
3.7824347e-05
4.3722694e-05
4.6668397e-05
4.4198256e-05
3.4782226e-05
1.6464701e-05
3.359517e-05
3.3576787e-05
3.3537014e-05
3.3465257e-05
3.328166e-05
3.2725338e-05
3.1549145e-05
3.0894635e-05
3.3404213e-05
3.9151206e-05
4.495453e-05
4.7569396e-05
4.470834e-05
3.4960219e-05
1.6466471e-05
3.3542107e-05
3.3527584e-05
3.3497423e-05
3.3440275e-05
3.3264838e-05
3.2692337e-05
3.1570022e-05
3.1325251e-05
3.4458518e-05
4.0493154e-05
4.6166277e-05
4.8444736e-05
4.5200423e-05
3.5131335e-05
1.6468431e-05
3.3492497e-05
3.3482682e-05
3.346391e-05
3.3423238e-05
3.3255838e-05
3.2669662e-05
3.163687e-05
3.1853603e-05
3.558461e-05
4.1844013e-05
4.7356964e-05
4.9295266e-05
4.5675496e-05
3.5296049e-05
1.647058e-05
3.3446735e-05
3.3442549e-05
3.3437051e-05
3.3414644e-05
3.3254937e-05
3.2659939e-05
3.1758039e-05
3.248056e-05
3.6773453e-05
4.3198551e-05
4.8525915e-05
5.0121838e-05
4.6134484e-05
3.545479e-05
1.6472917e-05
3.3405264e-05
3.3407707e-05
3.3417461e-05
3.3414983e-05
3.3262501e-05
3.2666595e-05
3.1941806e-05
3.3205093e-05
3.8016111e-05
4.4552381e-05
4.9672698e-05
5.0925303e-05
4.6578242e-05
3.5607941e-05
1.6475438e-05
3.3368581e-05
3.3378734e-05
3.3405791e-05
3.3424737e-05
3.3279047e-05
3.2693913e-05
3.2196e-05
3.4024429e-05
3.9304005e-05
4.5901851e-05
5.0797078e-05
5.1706496e-05
4.7007567e-05
3.5755851e-05
1.6478139e-05
3.3337245e-05
3.3356261e-05
3.3402727e-05
3.3444375e-05
3.3305315e-05
3.2747058e-05
3.2527626e-05
3.493427e-05
4.0629105e-05
4.7243935e-05
5.189898e-05
5.2466235e-05
4.7423201e-05
3.5898837e-05
1.6481016e-05
3.3311875e-05
3.3340983e-05
3.3408981e-05
3.3474361e-05
3.3342363e-05
3.2832018e-05
3.2942549e-05
3.5929077e-05
4.1984047e-05
4.8576139e-05
5.2978461e-05
5.3205315e-05
4.7825833e-05
3.6037185e-05
1.6484065e-05
3.3293163e-05
3.3333652e-05
3.3425295e-05
3.3515164e-05
3.3391671e-05
3.2955489e-05
3.344524e-05
3.7002367e-05
4.3362194e-05
4.9896417e-05
5.4035681e-05
5.3924502e-05
4.8216103e-05
3.6171158e-05
1.6487281e-05
3.328187e-05
3.3335086e-05
3.3452426e-05
3.3567274e-05
3.3455239e-05
3.3124679e-05
3.4038608e-05
3.8147031e-05
4.4757649e-05
5.1203097e-05
5.507088e-05
5.4624537e-05
4.8594609e-05
3.6300996e-05
1.6490657e-05
3.3278836e-05
3.3346162e-05
3.3491149e-05
3.3631234e-05
3.3535698e-05
3.334705e-05
3.4723927e-05
3.9355619e-05
4.6165227e-05
5.2494829e-05
5.6084365e-05
5.5306131e-05
4.8961908e-05
3.642692e-05
1.6494188e-05
3.3284986e-05
3.3367825e-05
3.3542248e-05
3.3707684e-05
3.3636394e-05
3.3630022e-05
3.5500856e-05
4.062061e-05
4.7580406e-05
5.3770529e-05
5.7076488e-05
5.5969968e-05
4.9318525e-05
3.6549139e-05
1.649787e-05
3.3301329e-05
3.3401078e-05
3.3606514e-05
3.3797415e-05
3.3761434e-05
3.3980648e-05
3.6367533e-05
4.1934623e-05
4.8999269e-05
5.5029346e-05
5.8047636e-05
5.6616678e-05
4.9664838e-05
3.6667082e-05
1.6501693e-05
3.3328964e-05
3.3446985e-05
3.3684746e-05
3.3901446e-05
3.3915705e-05
3.4405299e-05
3.7320743e-05
4.3290588e-05
5.0418432e-05
5.6270617e-05
5.8998211e-05
5.7246856e-05
5.0001247e-05
3.6781085e-05
1.6505652e-05
3.3369088e-05
3.3506668e-05
3.3777755e-05
3.4021102e-05
3.4104817e-05
3.4909387e-05
3.835613e-05
4.4681866e-05
5.1834983e-05
5.7493842e-05
5.992863e-05
5.7861073e-05
5.0328156e-05
3.6891454e-05
1.6509737e-05
3.3422991e-05
3.35813e-05
3.3886373e-05
3.4158118e-05
3.4334996e-05
3.549713e-05
3.9468438e-05
4.6102319e-05
5.3246423e-05
5.8698657e-05
6.0839323e-05
5.8459882e-05
5.0645974e-05
3.6998456e-05
1.6513939e-05
3.3492061e-05
3.3672101e-05
3.4011481e-05
3.4314728e-05
3.461291e-05
3.6171405e-05
4.0651758e-05
4.754635e-05
5.4650612e-05
5.9884814e-05
6.1730717e-05
5.9043758e-05
5.0954662e-05
3.7102376e-05
1.6518251e-05
3.3577784e-05
3.3780339e-05
3.4154029e-05
3.4493763e-05
3.4945436e-05
3.6933662e-05
4.1899775e-05
4.90089e-05
5.6045722e-05
6.1052155e-05
6.2603234e-05
5.9613144e-05
5.1254433e-05
3.7203376e-05
1.6522665e-05
3.3681742e-05
3.3907316e-05
3.4315094e-05
3.4698719e-05
3.5339399e-05
3.7783927e-05
4.3205985e-05
5.0485436e-05
5.7430202e-05
6.2200602e-05
6.3457292e-05
6.0168497e-05
5.1545789e-05
3.7301542e-05
1.6527175e-05
3.3805608e-05
3.4054378e-05
3.4495931e-05
3.4933799e-05
3.5801278e-05
3.8720867e-05
4.4563887e-05
5.1971919e-05
5.8802735e-05
6.3330139e-05
6.429331e-05
6.0710279e-05
5.1829167e-05
3.7396983e-05
1.6531777e-05
3.3951146e-05
3.422291e-05
3.469805e-05
3.520391e-05
3.633693e-05
3.9741921e-05
4.5967135e-05
5.3464765e-05
6.0162212e-05
6.4440808e-05
6.5111693e-05
6.1238822e-05
5.210497e-05
3.7489826e-05
1.6536467e-05
3.4120202e-05
3.4414349e-05
3.4923302e-05
3.5514602e-05
3.6951339e-05
4.0843471e-05
4.7409654e-05
5.4960805e-05
6.1507708e-05
6.5532689e-05
6.5912791e-05
6.1754113e-05
5.2373588e-05
3.7580216e-05
1.6541242e-05
3.43147e-05
3.4630202e-05
3.517397e-05
3.5871955e-05
3.7648408e-05
4.202104e-05
4.8885718e-05
5.6457244e-05
6.2838447e-05
6.660589e-05
6.6696969e-05
6.2256721e-05
5.2635225e-05
3.7668259e-05
1.6546101e-05
3.453664e-05
3.4872074e-05
3.5452864e-05
3.62824e-05
3.8430819e-05
4.3269504e-05
5.0389997e-05
5.7951622e-05
6.4153787e-05
6.7660549e-05
6.7464611e-05
6.2747161e-05
5.2890104e-05
3.7754041e-05
1.6551039e-05
3.4788096e-05
3.5141712e-05
3.5763395e-05
3.6752501e-05
3.9299956e-05
4.4583298e-05
5.1917581e-05
5.9441776e-05
6.5453201e-05
6.8696833e-05
6.821612e-05
6.3225894e-05
5.3138454e-05
3.7837642e-05
1.6556054e-05
3.5071221e-05
3.5441067e-05
3.6109633e-05
3.7288694e-05
4.0255903e-05
4.5956609e-05
5.3463976e-05
6.0925814e-05
6.6736264e-05
6.9714889e-05
6.8951394e-05
6.3693385e-05
5.3380528e-05
3.7919156e-05
1.6561141e-05
3.5388262e-05
3.5772359e-05
3.6496321e-05
3.7897023e-05
4.1297495e-05
4.7383544e-05
5.5025102e-05
6.2402077e-05
6.8002623e-05
7.0714871e-05
6.9670916e-05
6.4149946e-05
5.3616535e-05
3.7998674e-05
1.6566297e-05
3.5741586e-05
3.613817e-05
3.6928843e-05
3.8582878e-05
4.2422433e-05
4.8858264e-05
5.6597259e-05
6.3869111e-05
6.9251991e-05
7.1696975e-05
7.0375161e-05
6.4595878e-05
5.3846665e-05
3.807627e-05
1.657152e-05
3.6133718e-05
3.6541528e-05
3.7413132e-05
3.9350769e-05
4.3627432e-05
5.0375098e-05
5.817711e-05
6.5325642e-05
7.0484145e-05
7.2661426e-05
7.1064569e-05
6.503148e-05
5.4071096e-05
3.815201e-05
1.6576805e-05
3.6567398e-05
3.6985998e-05
3.7955525e-05
4.0204137e-05
4.4908394e-05
5.1928619e-05
5.9761653e-05
6.677057e-05
7.1698903e-05
7.3608077e-05
7.1739523e-05
6.5457052e-05
5.4290021e-05
3.8225956e-05
1.658215e-05
3.7045649e-05
3.7475752e-05
3.8562555e-05
4.1145239e-05
4.6260592e-05
5.3513693e-05
6.1348186e-05
6.8202915e-05
7.2896094e-05
7.4537228e-05
7.2400375e-05
6.5872858e-05
5.4503618e-05
3.8298171e-05
1.6587551e-05
3.757186e-05
3.8015609e-05
3.9240712e-05
4.2175085e-05
4.7678855e-05
5.5125512e-05
6.2934279e-05
6.9621811e-05
7.4075605e-05
7.5449208e-05
7.3047442e-05
6.6279148e-05
5.4712046e-05
3.8368709e-05
1.6593004e-05
3.8149868e-05
3.8611034e-05
3.9996178e-05
4.3293444e-05
4.9157737e-05
5.6759603e-05
6.4517751e-05
7.1026503e-05
7.5237294e-05
7.6344297e-05
7.3681024e-05
6.6676165e-05
5.4915452e-05
3.8437621e-05
1.6598507e-05
3.8784033e-05
3.9268072e-05
4.083456e-05
4.4498905e-05
5.0691666e-05
5.8411831e-05
6.6096646e-05
7.2416321e-05
7.638095e-05
7.722274e-05
7.4301395e-05
6.7064148e-05
5.5113978e-05
3.8504951e-05
1.6604055e-05
3.9479286e-05
3.9993229e-05
4.1760644e-05
4.5788993e-05
5.2275069e-05
6.0078383e-05
6.7669191e-05
7.3790638e-05
7.7506591e-05
7.808484e-05
7.4908817e-05
6.7443321e-05
5.5307756e-05
3.8570742e-05
1.6609646e-05
4.0241137e-05
4.0793277e-05
4.2778195e-05
4.7160306e-05
5.3902473e-05
6.1755749e-05
6.9233778e-05
7.5148915e-05
7.86143e-05
7.893085e-05
7.5503538e-05
6.7813888e-05
5.5496907e-05
3.8635031e-05
1.6615277e-05
4.1075616e-05
4.1675012e-05
4.3889804e-05
4.8608685e-05
5.5568581e-05
6.3440731e-05
7.0788994e-05
7.6490546e-05
7.9704002e-05
7.9760967e-05
7.6085808e-05
6.8176042e-05
5.5681544e-05
3.8697853e-05
1.6620943e-05
4.1989151e-05
4.2644965e-05
4.5096802e-05
5.0129381e-05
5.726832e-05
6.5130375e-05
7.2333484e-05
7.7815056e-05
8.0775883e-05
8.057539e-05
7.6655855e-05
6.8529967e-05
5.5861773e-05
3.8759238e-05
1.6626642e-05
4.2988359e-05
4.3709094e-05
4.6399236e-05
5.1717227e-05
5.8996867e-05
6.6821958e-05
7.3866019e-05
7.9122129e-05
8.1830068e-05
8.1374315e-05
7.7213894e-05
6.8875832e-05
5.603769e-05
3.8819216e-05
1.663237e-05
4.4079768e-05
4.4872487e-05
4.7795909e-05
5.3366791e-05
6.0749695e-05
6.8513034e-05
7.538545e-05
8.0411281e-05
8.2866601e-05
8.2157931e-05
7.7760126e-05
6.9213796e-05
5.6209384e-05
3.887781e-05
1.6638125e-05
4.5269483e-05
4.6139085e-05
4.9284466e-05
5.5072507e-05
6.2522533e-05
7.0201272e-05
7.6890667e-05
8.1682414e-05
8.3885536e-05
8.2926416e-05
7.8294738e-05
6.9544005e-05
5.6376938e-05
3.8935043e-05
1.6643902e-05
4.656281e-05
4.7511461e-05
5.0861512e-05
5.682878e-05
6.4311378e-05
7.1884516e-05
7.8380719e-05
8.2935394e-05
8.4886934e-05
8.3679933e-05
7.8817906e-05
6.9866594e-05
5.6540426e-05
3.8990936e-05
1.6649699e-05
4.7963894e-05
4.8990663e-05
5.2522767e-05
5.8630095e-05
6.6112532e-05
7.3560786e-05
7.985458e-05
8.4169995e-05
8.5870855e-05
8.4418633e-05
7.9329792e-05
7.0181689e-05
5.6699918e-05
3.9045505e-05
1.6655512e-05
4.9475379e-05
5.0576125e-05
5.4263212e-05
6.0471037e-05
6.7922439e-05
7.5228119e-05
8.1311759e-05
8.5386032e-05
8.6837348e-05
8.5142657e-05
7.9830545e-05
7.0489406e-05
5.6855476e-05
3.9098766e-05
1.6661339e-05
5.1098144e-05
5.2265658e-05
5.6077254e-05
6.2346394e-05
6.9737834e-05
7.6884562e-05
8.2751631e-05
8.6583331e-05
8.7786454e-05
8.5852129e-05
8.0320302e-05
7.0789849e-05
5.7007157e-05
3.9150732e-05
1.6667176e-05
5.2831125e-05
5.4055496e-05
5.7958841e-05
6.4251064e-05
7.1555489e-05
7.8528725e-05
8.4173591e-05
8.7761717e-05
8.8718202e-05
8.6547162e-05
8.0799187e-05
7.1083116e-05
5.7155012e-05
3.9201415e-05
1.6673019e-05
5.4671259e-05
5.5940426e-05
5.9901619e-05
6.6180163e-05
7.3372178e-05
8.0159323e-05
8.5577068e-05
8.8921017e-05
8.9632612e-05
8.7227854e-05
8.1267311e-05
7.1369292e-05
5.7299089e-05
3.9250824e-05
1.6678867e-05
5.661352e-05
5.7913919e-05
6.1898933e-05
6.8128778e-05
7.5185337e-05
8.1775104e-05
8.6961513e-05
9.0061053e-05
9.0529687e-05
8.7894287e-05
8.1724772e-05
7.1648456e-05
5.7439428e-05
3.9298968e-05
1.6684715e-05
5.865108e-05
5.9968322e-05
6.3943927e-05
7.0092125e-05
7.6992606e-05
8.3374883e-05
8.8326394e-05
9.1181635e-05
9.1409415e-05
8.8546527e-05
8.2171654e-05
7.1920675e-05
5.7576065e-05
3.9345853e-05
1.6690561e-05
6.0775491e-05
6.209494e-05
6.602947e-05
7.2066055e-05
7.8791746e-05
8.4957527e-05
8.9671185e-05
9.2282567e-05
9.2271768e-05
8.9184621e-05
8.2608026e-05
7.2186006e-05
5.770903e-05
3.9391484e-05
1.6696402e-05
6.2976887e-05
6.4284394e-05
6.8148749e-05
7.4046576e-05
8.0580623e-05
8.6521947e-05
9.0995364e-05
9.3363633e-05
9.3116697e-05
8.98086e-05
8.3033944e-05
7.2444497e-05
5.7838348e-05
3.9435862e-05
1.6702235e-05
6.5244443e-05
6.6526913e-05
7.0295002e-05
7.6029836e-05
8.2357195e-05
8.8067086e-05
9.2298408e-05
9.4424605e-05
9.3944129e-05
9.0418473e-05
8.3449445e-05
7.2696184e-05
5.7964037e-05
3.9478989e-05
1.6708056e-05
6.7566757e-05
6.8812514e-05
7.2461552e-05
7.8012109e-05
8.4119498e-05
8.9591917e-05
9.357979e-05
9.5465233e-05
9.4753973e-05
9.1014227e-05
8.3854552e-05
7.2941091e-05
5.8086108e-05
3.9520862e-05
1.6713863e-05
6.9932194e-05
7.1131196e-05
7.4641845e-05
7.9989785e-05
8.5865632e-05
9.109543e-05
9.4838973e-05
9.6485245e-05
9.5546111e-05
9.1595829e-05
8.4249268e-05
7.3179232e-05
5.8204567e-05
3.9561478e-05
1.6719652e-05
7.2329198e-05
7.347312e-05
7.6829484e-05
8.1959358e-05
8.7593753e-05
9.2576632e-05
9.6075413e-05
9.7484351e-05
9.63204e-05
9.2163223e-05
8.463358e-05
7.3410604e-05
5.8319412e-05
3.9600828e-05
1.672542e-05
7.4746549e-05
7.5828763e-05
7.9018266e-05
8.3917422e-05
8.9302064e-05
9.4034544e-05
9.7288554e-05
9.8462237e-05
9.7076672e-05
9.2716327e-05
8.5007453e-05
7.3635195e-05
5.8430633e-05
3.9638903e-05
1.6731164e-05
7.7173565e-05
7.8189041e-05
8.1202215e-05
8.5860672e-05
9.0988811e-05
9.5468195e-05
9.8477834e-05
9.9418569e-05
9.7814736e-05
9.3255039e-05
8.5370837e-05
7.3852978e-05
5.8538211e-05
3.967569e-05
1.673688e-05
7.9600253e-05
8.0545412e-05
8.3375623e-05
8.7785906e-05
9.2652281e-05
9.6876629e-05
9.964268e-05
0.000100353
9.8534379e-05
9.3779234e-05
8.5723659e-05
7.406391e-05
5.8642121e-05
3.9711173e-05
1.6742564e-05
8.201741e-05
8.2889944e-05
8.5533083e-05
8.9690034e-05
9.4290804e-05
9.8258901e-05
0.00010078252
0.00010126515
9.9235364e-05
9.4288765e-05
8.6065832e-05
7.426794e-05
5.8742329e-05
3.9745331e-05
1.6748212e-05
8.4416677e-05
8.5215363e-05
8.7669514e-05
9.1570091e-05
9.5902755e-05
9.9614084e-05
0.00010189677
0.00010215465
9.9917441e-05
9.4783468e-05
8.6397251e-05
7.4464999e-05
5.8838793e-05
3.9778141e-05
1.675382e-05
8.6790562e-05
8.751508e-05
8.9780193e-05
9.3423247e-05
9.7486562e-05
0.00010094127
0.00010298487
0.00010302112
0.00010058034
9.5263162e-05
8.6717795e-05
7.465501e-05
5.8931465e-05
3.9809579e-05
1.6759384e-05
8.9132436e-05
8.9783191e-05
9.1860767e-05
9.5246825e-05
9.9040713e-05
0.00010223958
0.00010404625
0.00010386416
0.0001012238
9.5727654e-05
8.7027331e-05
7.4837885e-05
5.9020289e-05
3.9839615e-05
1.6764898e-05
9.1436499e-05
9.2014473e-05
9.3907273e-05
9.7038312e-05
0.00010056376
0.00010350818
0.00010508038
0.00010468341
0.00010184752
9.6176742e-05
8.7325718e-05
7.5013527e-05
5.9105205e-05
3.9868218e-05
1.6770359e-05
9.3697745e-05
9.420436e-05
9.5916139e-05
9.8795377e-05
0.00010205435
0.00010474625
0.00010608673
0.00010547848
0.00010245125
9.6610221e-05
8.7612807e-05
7.5181834e-05
5.9186147e-05
3.9895355e-05
1.677576e-05
9.5911906e-05
9.6348911e-05
9.7884188e-05
0.00010051588
0.00010351119
0.00010595305
0.00010706483
0.00010624903
0.00010303471
9.7027887e-05
8.7888446e-05
7.5342698e-05
5.9263048e-05
3.9920993e-05
1.6781097e-05
9.80754e-05
9.8444775e-05
9.9808632e-05
0.00010219787
0.0001049331
0.00010712788
0.00010801422
0.00010699474
0.00010359765
9.7429541e-05
8.8152484e-05
7.5496013e-05
5.9335839e-05
3.9945096e-05
1.6786363e-05
0.00010018527
0.00010048915
0.00010168706
0.00010383962
0.00010631902
0.0001082701
0.00010893449
0.00010771532
0.00010413984
9.7814998e-05
8.8404775e-05
7.5641671e-05
5.940445e-05
3.996763e-05
1.6791553e-05
0.00010223914
0.00010247974
0.00010351743
0.0001054396
0.00010766798
0.00010937914
0.0001098253
0.0001084105
0.00010466107
9.8184086e-05
8.8645184e-05
7.5779571e-05
5.9468814e-05
3.998856e-05
1.6796662e-05
0.00010423512
0.00010441471
0.00010529803
0.00010699649
0.00010897914
0.00011045452
0.00011068635
0.00010908007
0.00010516116
9.8536654e-05
8.8873584e-05
7.5909617e-05
5.9528869e-05
4.0007856e-05
1.6801683e-05
0.00010617179
0.00010629266
0.00010702751
0.00010850919
0.00011025178
0.00011149582
0.00011151739
0.00010972388
0.00010563999
9.8872578e-05
8.9089869e-05
7.6031725e-05
5.9584554e-05
4.0025487e-05
1.680661e-05
0.00010804816
0.00010811254
0.0001087048
0.00010997681
0.00011148529
0.00011250271
0.00011231824
0.00011034179
0.00010609743
9.919176e-05
8.9293948e-05
7.614582e-05
5.9635821e-05
4.0041427e-05
1.6811438e-05
0.00010986358
0.00010987367
0.00011032911
0.00011139862
0.00011267922
0.00011347494
0.00011308879
0.00011093374
0.00010653345
9.9494136e-05
8.9485756e-05
7.6251844e-05
5.9682625e-05
4.0055653e-05
1.681616e-05
0.0001116177
0.00011157565
0.00011189992
0.00011277412
0.0001138332
0.00011441235
0.00011382898
0.00011149972
0.00010694801
9.9779673e-05
8.966525e-05
7.6349753e-05
5.9724934e-05
4.0068147e-05
1.6820771e-05
0.00011331047
0.00011321835
0.00011341694
0.00011410297
0.00011494701
0.00011531485
0.00011453883
0.00011203977
0.00010734115
0.00010004837
8.9832413e-05
7.6439524e-05
5.9762724e-05
4.0078896e-05
1.6825266e-05
0.00011494207
0.0001148019
0.0001148801
0.00011538499
0.00011602054
0.00011618244
0.00011521841
0.00011255397
0.00010771294
0.00010030028
8.9987256e-05
7.652115e-05
5.9795986e-05
4.0087893e-05
1.6829639e-05
0.00011651288
0.00011632658
0.00011628952
0.00011662016
0.00011705377
0.0001170152
0.00011586785
0.00011304249
0.00010806349
0.00010053547
9.0129819e-05
7.6594643e-05
5.982472e-05
4.0095134e-05
1.6833885e-05
0.00011802347
0.00011779288
0.00011764546
0.0001178086
0.00011804681
0.00011781328
0.00011648735
0.0001135055
0.00010839297
0.00010075405
9.0260168e-05
7.6660039e-05
5.984894e-05
4.0100625e-05
1.6838e-05
0.00011947454
0.00011920143
0.00011894836
0.00011895055
0.00011899985
0.0001185769
0.00011707716
0.00011394325
0.00010870159
0.00010095618
9.0378398e-05
7.671739e-05
5.9868672e-05
4.0104374e-05
1.6841979e-05
0.0001208669
0.00012055298
0.00012019876
0.00012004638
0.00011991317
0.00011930635
0.00011763758
0.00011435604
0.00010898957
0.00010114203
9.0484634e-05
7.6766771e-05
5.9883956e-05
4.0106398e-05
1.6845819e-05
0.00012220149
0.00012184837
0.00012139733
0.00012109653
0.00012078712
0.00012000197
0.00011816895
0.00011474417
0.00010925721
0.00010131181
9.0579024e-05
7.6808276e-05
5.9894844e-05
4.0106718e-05
1.6849516e-05
0.0001234793
0.00012308856
0.00012254481
0.00012210156
0.00012162215
0.00012066416
0.00011867168
0.00011510803
0.0001095048
0.00010146578
9.0661742e-05
7.6842017e-05
5.9901398e-05
4.0105361e-05
1.6853066e-05
0.00012470139
0.00012427453
0.00012364203
0.00012306207
0.00012241874
0.00012129339
0.00011914619
0.00011544801
0.00010973271
0.00010160421
9.0732989e-05
7.6868127e-05
5.9903697e-05
4.010236e-05
1.6856468e-05
0.0001258689
0.00012540736
0.00012468987
0.00012397876
0.00012317746
0.00012189013
0.00011959295
0.00011576455
0.00010994131
0.0001017274
9.0792986e-05
7.6886754e-05
5.9901827e-05
4.0097754e-05
1.6859719e-05
0.00012698296
0.00012648813
0.00012568927
0.00012485237
0.00012389889
0.00012245493
0.00012001247
0.0001160581
0.00011013098
0.00010183567
9.0841975e-05
7.6898063e-05
5.9895887e-05
4.0091584e-05
1.6862817e-05
0.00012804476
0.00012751799
0.00012664122
0.00012568369
0.00012458368
0.00012298836
0.00012040527
0.00011632916
0.00011030217
0.00010192937
9.0880219e-05
7.6902236e-05
5.9885984e-05
4.0083899e-05
1.6865761e-05
0.00012905551
0.00012849809
0.00012754673
0.00012647353
0.00012523252
0.00012349102
0.0001207719
0.00011657822
0.00011045531
0.00010200886
9.0908e-05
7.6899469e-05
5.9872238e-05
4.0074751e-05
1.686855e-05
0.00013001643
0.0001294296
0.00012840683
0.00012722276
0.00012584613
0.00012396355
0.00012111296
0.00011680582
0.00011059087
0.00010207454
9.0925613e-05
7.6889968e-05
5.9854774e-05
4.0064195e-05
1.6871184e-05
0.00013092875
0.00013031373
0.0001292226
0.00012793228
0.00012642524
0.00012440658
0.00012142903
0.0001170125
0.00011070933
0.0001021268
9.0933371e-05
7.6873957e-05
5.9833728e-05
4.005229e-05
1.6873662e-05
0.00013179372
0.00013115166
0.00012999512
0.000128603
0.00012697063
0.00012482081
0.00012172072
0.00011719883
0.00011081118
0.00010216606
9.0931601e-05
7.6851667e-05
5.9809243e-05
4.0039099e-05
1.6875986e-05
0.00013261258
0.00013194462
0.00013072547
0.00012923584
0.00012748309
0.00012520693
0.00012198868
0.00011736538
0.00011089694