/*--------------------------------*- C++ -*----------------------------------*\
| =========                 |                                                 |
| \\      /  F ield         | OpenFOAM: The Open Source CFD Toolbox           |
|  \\    /   O peration     | Version:  2506                                  |
|   \\  /    A nd           | Website:  www.openfoam.com                      |
|    \\/     M anipulation  |                                                 |
\*---------------------------------------------------------------------------*/
FoamFile
{
    version     2.0;
    format      ascii;
    arch        "LSB;label=32;scalar=64";
    class       volVectorField;
    location    "26000/water";
    object      U;
}
// * * * * * * * * * * * * * * * * * * * * * * * * * * * * * * * * * * * * * //

dimensions      [0 1 -1 0 0 0 0];

internalField   nonuniform List<vector> 
6000
(
(0.25028648 -3.4193492e-05 1.7805128e-18)
(0.25028875 -7.4648812e-05 -4.2276222e-18)
(0.25029344 -0.00011804414 -3.0209273e-19)
(0.25030059 -0.00016540046 -2.5970845e-19)
(0.25031046 -0.00021487336 -3.763057e-20)
(0.25032332 -0.00026685039 -1.6052464e-19)
(0.25033948 -0.00032192175 1.5373132e-19)
(0.25035939 -0.00038078672 -1.0458247e-19)
(0.25038356 -0.00044434477 -7.6704023e-20)
(0.25041254 -0.00051362452 1.7496771e-19)
(0.25044587 -0.00058677559 1.6081933e-19)
(0.25047643 -0.00065822056 -9.9134103e-20)
(0.25046276 -0.00078466513 1.2503247e-19)
(0.25013031 -0.0015987837 2.2299141e-19)
(0.24584996 0.0019968142 1.3981374e-19)
(0.25104035 -3.7261304e-05 3.1200039e-18)
(0.25104514 -8.9895979e-05 -2.253817e-18)
(0.2510558 -0.00014352114 -1.334668e-18)
(0.25107219 -0.00020025424 -6.8296689e-19)
(0.2510947 -0.0002571822 7.8174445e-19)
(0.25112368 -0.00031440571 -5.2075529e-20)
(0.25115965 -0.00037188242 2.872531e-19)
(0.25120324 -0.00042947839 -2.7060344e-19)
(0.2512551 -0.00048709454 -8.8097255e-20)
(0.25131538 -0.00054561245 3.0790142e-19)
(0.25138039 -0.00060405492 2.2822674e-19)
(0.25142587 -0.00063755821 -9.2280394e-20)
(0.25133175 -0.00059164843 7.3711358e-20)
(0.25037931 -0.0014370973 2.8670967e-19)
(0.24194277 0.00099520264 1.206285e-19)
(0.25195051 -3.6589028e-05 -2.6075574e-18)
(0.25195563 -9.0250612e-05 4.0375835e-18)
(0.25196731 -0.00014313025 4.9508633e-19)
(0.25198528 -0.00019912655 -1.3669988e-18)
(0.25200977 -0.00025508716 3.790603e-19)
(0.25204101 -0.0003112558 -4.4594722e-19)
(0.25207932 -0.00036762123 -4.1514795e-19)
(0.25212505 -0.00042413945 -9.1689343e-19)
(0.25217823 -0.00048056786 -7.1097886e-19)
(0.25223708 -0.0005377572 -1.6783915e-19)
(0.25229114 -0.00060007155 -3.4232499e-19)
(0.25229033 -0.00065419842 -4.8816348e-19)
(0.25200573 -0.00054460881 -3.7102355e-19)
(0.25014357 -0.0012195308 -1.4277711e-19)
(0.23758495 0.00043820543 -9.6341601e-20)
(0.25283353 -3.7446604e-05 -1.9953152e-18)
(0.25283867 -9.3611087e-05 -3.3561463e-20)
(0.25285018 -0.00014906892 9.0531618e-19)
(0.25286783 -0.00020791578 -6.3732415e-19)
(0.25289182 -0.00026672308 -2.1746542e-19)
(0.25292238 -0.00032582165 -3.7162452e-19)
(0.25295982 -0.00038519269 -6.2691048e-19)
(0.25300432 -0.00044485276 -7.1412643e-19)
(0.25305525 -0.00050441426 -5.4980664e-19)
(0.25310809 -0.00056332944 1.4333229e-19)
(0.25314261 -0.00062607506 -4.635705e-19)
(0.25307635 -0.00069910336 -4.3777475e-19)
(0.25255493 -0.0005845712 -4.3526233e-19)
(0.24963188 -0.001063787 -2.6513555e-19)
(0.23320285 0.0001058672 -6.5698959e-20)
(0.25372643 -3.8342943e-05 1.1028471e-17)
(0.2537317 -9.6368691e-05 2.2942625e-18)
(0.25374347 -0.00015372841 1.6775446e-18)
(0.25376156 -0.00021453144 1.1082372e-18)
(0.25378616 -0.00027516439 -2.5067707e-19)
(0.25381749 -0.00033599427 3.4406455e-19)
(0.25385581 -0.00039694563 -2.0321208e-19)
(0.25390101 -0.00045805575 -8.1664196e-20)
(0.25395133 -0.00051907431 -6.4026224e-21)
(0.25399821 -0.00057855465 4.0601873e-19)
(0.25400834 -0.00063773998 1.4637288e-19)
(0.25386022 -0.0007177221 1.6508377e-19)
(0.25305737 -0.00062191547 -8.1670264e-20)
(0.24895451 -0.00093835859 -3.6092977e-20)
(0.22897365 -8.3792337e-05 3.4893303e-20)
(0.25464474 -3.8661619e-05 2.677287e-18)
(0.25465014 -9.7320118e-05 4.2711359e-19)
(0.2546622 -0.00015516461 1.586813e-18)
(0.25468073 -0.00021648308 1.5325829e-18)
(0.2547059 -0.00027758564 -5.9172081e-19)
(0.25473792 -0.000338881 5.7411332e-19)
(0.25477689 -0.00040025681 1.1748036e-19)
(0.25482222 -0.000461728 -4.1659565e-20)
(0.25487049 -0.00052322808 -3.3641497e-20)
(0.2549078 -0.000583188 3.934018e-19)
(0.25488519 -0.00063896641 4.0245629e-19)
(0.25463685 -0.00071821651 1.2088592e-19)
(0.25350729 -0.0006469875 1.0449414e-19)
(0.248129 -0.00083894719 -5.0015667e-20)
(0.2249409 -0.00018589273 2.0070247e-20)
(0.25557031 -3.8595293e-05 -5.7728231e-18)
(0.25557581 -9.7309345e-05 -4.8677152e-18)
(0.25558805 -0.00015511982 -8.1965034e-19)
(0.25560682 -0.00021642526 8.1801031e-19)
(0.2556323 -0.00027749359 -9.6559428e-19)
(0.25566463 -0.00033876345 4.9465514e-19)
(0.25570371 -0.00040009734 5.363219e-19)
(0.25574825 -0.00046144626 3.6316419e-19)
(0.25579256 -0.00052279714 3.941505e-19)
(0.25581623 -0.0005828814 2.3567035e-19)
(0.25575267 -0.00063600477 1.1983798e-19)
(0.25538743 -0.00071016267 7.2210767e-20)
(0.25388915 -0.00066107344 1.2582657e-19)
(0.24716598 -0.00076077854 -6.4470623e-20)
(0.22112141 -0.00023459296 8.390706e-20)
(0.25649134 -3.8297106e-05 8.9675424e-19)
(0.25649692 -9.6712127e-05 3.4339156e-19)
(0.25650928 -0.00015419069 1.5483665e-18)
(0.25652824 -0.00021515485 -4.6359903e-20)
(0.25655393 -0.00027585718 -5.9107088e-19)
(0.25658641 -0.0003367553 6.9110556e-20)
(0.25662528 -0.00039769653 3.6854487e-19)
(0.2566683 -0.0004585644 3.3759308e-19)
(0.25670691 -0.00051927104 3.204386e-19)
(0.25671305 -0.00057893859 -3.195657e-19)
(0.25660095 -0.00063003278 1.1635606e-19)
(0.25610359 -0.00069722485 2.1698104e-19)
(0.25419746 -0.00066519719 3.1767214e-20)
(0.24608527 -0.00069788903 -2.0088887e-20)
(0.21752738 -0.00025081848 -3.9061724e-20)
(0.25740382 -3.7852859e-05 1.7259581e-20)
(0.25740947 -9.5689493e-05 8.278373e-21)
(0.25742193 -0.00015257331 4.8398017e-19)
(0.25744104 -0.00021291358 4.8168383e-19)
(0.25746687 -0.00027297291 9.9294022e-19)
(0.25749936 -0.0003332193 1.3700922e-19)
(0.2575377 -0.00039348924 3.735288e-19)
(0.2575784 -0.00045361301 3.6282344e-19)
(0.25760945 -0.00051335259 1.7304814e-19)
(0.25759421 -0.00057212213 2.9320755e-19)
(0.25742635 -0.00062159363 1.964402e-19)
(0.25678237 -0.00068144217 2.0411626e-19)
(0.25443121 -0.00066103685 -4.3433076e-21)
(0.24490935 -0.00064561644 -2.0547658e-20)
(0.21416513 -0.00024776584 -1.0783679e-19)
(0.25830515 -3.7308637e-05 2.6312585e-18)
(0.25831084 -9.4372768e-05 2.7205821e-19)
(0.25832339 -0.00015047649 -8.6610042e-19)
(0.2583426 -0.00020999612 3.4845353e-19)
(0.25836849 -0.00026922145 -1.0238045e-19)
(0.25840083 -0.00032862339 2.8256067e-19)
(0.25843826 -0.00038802594 3.4818418e-19)
(0.25847573 -0.00044722017 4.8230412e-19)
(0.25849727 -0.00050579279 3.8459175e-19)
(0.25845683 -0.00056328987 5.0512288e-19)
(0.25822634 -0.00061131675 4.4084665e-20)
(0.25742154 -0.00066417742 1.5275226e-19)
(0.2545896 -0.00065044234 6.6059853e-20)
(0.24365871 -0.00060064453 9.7849809e-21)
(0.21103455 -0.00023378679 -7.7862547e-21)
(0.259193 -3.669388e-05 7.4901994e-18)
(0.25919873 -9.2857459e-05 5.2358462e-18)
(0.25921134 -0.00014806165 -9.3184146e-19)
(0.25923061 -0.00020663289 -2.5404996e-19)
(0.25925648 -0.0002648995 4.557976e-19)
(0.25928848 -0.00032332972 4.6856431e-19)
(0.25932457 -0.00038173097 3.1243107e-19)
(0.25935785 -0.00043986308 5.3824917e-19)
(0.25936788 -0.00049714489 5.7780978e-19)
(0.25929853 -0.00055310431 4.041446e-20)
(0.2589988 -0.00059970361 9.2420193e-20)
(0.25801896 -0.00064623361 1.6912107e-19)
(0.25467145 -0.00063499349 7.4002318e-20)
(0.24235144 -0.00056062195 1.6727146e-21)
(0.20813123 -0.0002141088 5.9505613e-20)
(0.26006576 -3.6034054e-05 6.5024095e-18)
(0.26007152 -9.1214284e-05 3.8152353e-18)
(0.26008417 -0.00014544281 -2.7317181e-19)
(0.26010346 -0.00020298347 4.24767e-19)
(0.26012923 -0.00026021093 8.2965369e-19)
(0.2601607 -0.00031758689 6.3823423e-19)
(0.26019497 -0.00037489796 5.6062673e-19)
(0.26022303 -0.0004318747 6.0231059e-19)
(0.26021952 -0.00048779066 4.0002114e-19)
(0.26011767 -0.00054204301 -3.3381841e-20)
(0.25974224 -0.00058714002 2.5467389e-19)
(0.25857279 -0.00062806077 1.4499543e-19)
(0.25467557 -0.00061594005 1.3194193e-19)
(0.24100379 -0.00052390611 4.8903902e-20)
(0.20544863 -0.00019196316 6.5707949e-20)
(0.2609225 -3.5349632e-05 2.7467916e-18)
(0.26092828 -8.9497285e-05 3.4201911e-18)
(0.26094096 -0.00014270541 2.4659757e-19)
(0.26096023 -0.00019916671 8.7188709e-19)
(0.2609858 -0.00025530722 7.5230935e-19)
(0.2610165 -0.00031157921 6.1552562e-19)
(0.26104844 -0.00036774517 5.2370796e-19)
(0.2610702 -0.00042350433 2.6714967e-19)
(0.26105114 -0.00047801113 1.130801e-19)
(0.26091327 -0.00053046085 -3.5619552e-20)
(0.2604557 -0.00057393662 3.8453734e-19)
(0.2590814 -0.00060990566 1.6583789e-19)
(0.2546009 -0.00059424331 9.1166832e-20)
(0.23963056 -0.00048937354 5.1644933e-20)
(0.20297926 -0.00016931833 4.0208004e-20)
(0.26176274 -3.4655538e-05 1.4792169e-19)
(0.26176854 -8.7746855e-05 4.3083097e-18)
(0.26178122 -0.00013991377 -6.1964531e-19)
(0.26180042 -0.00019527246 3.721775e-19)
(0.26182568 -0.00025030305 5.8058796e-19)
(0.26185536 -0.00030544607 3.0498289e-19)
(0.26188442 -0.00036043768 6.6717732e-19)
(0.26189878 -0.00041494196 4.0459826e-19)
(0.26186213 -0.00046801762 1.8694191e-19)
(0.2616848 -0.00051862213 -6.767209e-20)
(0.26113855 -0.00056034346 2.1201596e-19)
(0.25954316 -0.00059189152 9.6354515e-20)
(0.25444651 -0.0005706321 5.7675018e-20)
(0.23824529 -0.00045627776 4.2041674e-20)
(0.20071509 -0.00014735259 9.7206852e-20)
(0.26258633 -3.396306e-05 2.2822959e-18)
(0.26259213 -8.599378e-05 2.1715632e-18)
(0.26260479 -0.00013711719 3.8182475e-18)
(0.26262388 -0.00019136968 7.8588814e-19)
(0.2626487 -0.00024528655 -1.0566833e-18)
(0.26267708 -0.00029929459 3.7232853e-19)
(0.26270267 -0.00035310243 7.5940982e-19)
(0.26270848 -0.00040633486 6.1256536e-19)
(0.26265224 -0.00045797299 2.6008374e-19)
(0.26243199 -0.00050672605 -1.8274254e-20)
(0.26179026 -0.00054656345 1.0612413e-19)
(0.25995633 -0.0005740675 1.345532e-20)
(0.25421177 -0.00054566294 8.3033601e-20)
(0.23686046 -0.00042415213 1.2450831e-19)
(0.19864765 -0.0001267576 3.7808151e-20)
(0.26339335 -3.32814e-05 3.0865395e-18)
(0.26339915 -8.426274e-05 2.8838055e-18)
(0.26341177 -0.0001343551 2.791662e-18)
(0.26343068 -0.0001875135 1.2543276e-18)
(0.26345493 -0.00024032822 1.3296746e-18)
(0.26348171 -0.00029321054 5.5005513e-19)
(0.2635032 -0.00034584107 3.5400047e-19)
(0.2634993 -0.00039780175 3.2298443e-19)
(0.26342146 -0.00044800829 2.8753831e-19)
(0.26315482 -0.00049492779 -2.3417527e-20)
(0.26241041 -0.00053276478 1.4674481e-19)
(0.26031893 -0.00055643964 2.1057362e-20)
(0.2538966 -0.000519773 2.4314738e-20)
(0.23548766 -0.00039274464 3.9893499e-20)
(0.19676807 -0.00010792878 -9.9797986e-20)
(0.26418413 -3.2618312e-05 3.4468607e-18)
(0.26418991 -8.2574226e-05 2.8568e-18)
(0.26420246 -0.00013166021 1.0855446e-18)
(0.26422112 -0.0001837496 6.3129019e-19)
(0.26424465 -0.00023548648 1.1503779e-18)
(0.2642695 -0.00028726512 6.3179668e-19)
(0.26428624 -0.00033873796 4.057854e-19)
(0.26427145 -0.00038944152 1.1130641e-19)
(0.26416998 -0.0004382328 1.9127596e-19)
(0.26385341 -0.00048335173 2.0614236e-19)
(0.26299854 -0.00051908846 8.3580224e-20)
(0.26062878 -0.00053898815 1.1121075e-19)
(0.25350187 -0.00049331965 -7.033934e-21)
(0.2341376 -0.00036197184 -4.3610625e-21)
(0.19506692 -9.1079356e-05 -3.9539833e-20)
(0.26495914 -3.1980325e-05 3.126305e-18)
(0.2649649 -8.0945388e-05 3.8300007e-18)
(0.26497734 -0.00012905989 2.2243425e-18)
(0.26499568 -0.00018011622 8.6957589e-19)
(0.26501831 -0.00023081031 9.878565e-19)
(0.26504088 -0.00028151806 8.3108303e-19)
(0.2650522 -0.00033186392 5.9782637e-19)
(0.2650253 -0.00038133727 -4.963315e-20)
(0.26489816 -0.00042873842 -5.628533e-20)
(0.26452796 -0.00047209827 2.3878617e-19)
(0.26355413 -0.00050565096 1.2917401e-19)
(0.2608835 -0.00052167636 2.219259e-19)
(0.25302971 -0.00046660631 6.147704e-20)
(0.23282016 -0.00033188327 6.3347052e-20)
(0.19353413 -7.6303786e-05 9.7148441e-20)
(0.26571903 -3.1372765e-05 2.9536271e-18)
(0.26572475 -7.9390278e-05 3.7397381e-18)
(0.26573705 -0.00012657658 3.0584407e-19)
(0.26575498 -0.00017664472 1.2372196e-18)
(0.26577653 -0.00022633987 1.0272258e-18)
(0.26579644 -0.0002760185 6.4664642e-19)
(0.26580163 -0.0003252772 2.7438129e-19)
(0.26576141 -0.00037355728 1.7093006e-19)
(0.26560652 -0.00041960061 1.5692735e-19)
(0.26517878 -0.00046124611 1.4620511e-20)
(0.26407657 -0.00049254343 2.1355632e-19)
(0.26108058 -0.00050445572 1.955975e-19)
(0.25248384 -0.00043989699 1.8529094e-19)
(0.23154421 -0.00030262987 3.3132059e-20)
(0.19215888 -6.3609731e-05 1.2907968e-19)
(0.26646455 -3.0799673e-05 8.9624351e-18)
(0.26647021 -7.7919711e-05 2.0057542e-18)
(0.26648233 -0.00012422759 3.4103095e-18)
(0.26649975 -0.0001733593 2.653234e-18)
(0.26652002 -0.00022210618 -3.0281407e-19)
(0.26653688 -0.0002708044 1.4746727e-18)
(0.26653522 -0.00031902283 9.542807e-19)
(0.26648042 -0.00036615421 1.1380491e-18)
(0.26629564 -0.00041087723 7.7630615e-19)
(0.26580617 -0.00045085191 -1.3171851e-19)
(0.26456508 -0.00047982866 4.8483341e-19)
(0.26121753 -0.00048726982 4.4821831e-19)
(0.25186982 -0.00041342264 4.0022895e-19)
(0.23031742 -0.00027443217 1.9860007e-19)
(0.1909297 -5.2932834e-05 2.1395207e-19)
(0.26719653 -3.0263687e-05 3.219466e-18)
(0.26720212 -7.6541023e-05 8.2355458e-21)
(0.26721401 -0.00012202465 2.8045145e-18)
(0.26723083 -0.00017027641 2.7210785e-18)
(0.2672496 -0.00021813033 1.2189883e-18)
(0.26726299 -0.00026590165 1.1848489e-18)
(0.26725373 -0.0003131315 9.7552052e-19)
(0.26718309 -0.00035916374 1.0529866e-18)
(0.26696618 -0.00040260692 7.0434245e-19)
(0.26641044 -0.00044094906 2.1364822e-19)
(0.26501868 -0.00046753759 5.1441409e-19)
(0.26129202 -0.00047005901 3.6416211e-19)
(0.25119506 -0.00038738325 2.3904579e-19)
(0.2291461 -0.00024754677 2.5423176e-19)
(0.18983455 -4.4145099e-05 1.4641479e-19)
(0.26791589 -2.9765992e-05 -4.3064297e-18)
(0.26792138 -7.5257933e-05 -1.1226644e-19)
(0.26793299 -0.00011997376 3.0493823e-19)
(0.26794908 -0.00016740448 1.3134543e-18)
(0.26796613 -0.00021442312 1.6748903e-18)
(0.26797562 -0.00026132351 2.002935e-19)
(0.267958 -0.00030761887 4.3051018e-19)
(0.26787018 -0.00035260382 2.7842902e-19)
(0.2676188 -0.00039480805 8.3073647e-20)
(0.2669918 -0.00043154706 2.0223626e-19)
(0.26543617 -0.00045566686 1.9503144e-19)
(0.2613021 -0.00045276643 1.0964339e-19)
(0.2504687 -0.00036194908 3.1374887e-20)
(0.22803501 -0.00022223217 7.7037195e-20)
(0.18886112 -3.7064087e-05 -1.116368e-20)
(0.26862352 -2.9306383e-05 5.7005958e-18)
(0.2686289 -7.4070662e-05 7.7215245e-19)
(0.26864017 -0.00011807533 2.7175793e-18)
(0.26865542 -0.00016474412 2.0271814e-18)
(0.26867049 -0.00021098533 1.7625501e-18)
(0.26867563 -0.000257071 1.6004826e-18)
(0.26864885 -0.00030248606 1.2729838e-18)
(0.26854251 -0.00034647515 1.0654985e-18)
(0.26825414 -0.00038747924 4.3745078e-19)
(0.26755035 -0.00042263245 -1.6426032e-19)
(0.2658161 -0.00044417905 3.6601821e-19)
(0.26124652 -0.00043534493 4.7786621e-19)
(0.24970133 -0.00033726333 3.2571036e-19)
(0.22698727 -0.00019871676 2.5191456e-19)
(0.18799711 -3.1466399e-05 1.5736972e-19)
(0.26932033 -2.8883461e-05 3.1623878e-18)
(0.26932558 -7.2976356e-05 -5.9330528e-19)
(0.26933645 -0.00011632481 9.7582458e-19)
(0.26935072 -0.00016228909 1.6470854e-18)
(0.26936357 -0.0002078089 1.5840594e-18)
(0.26936389 -0.00025313433 1.4784348e-18)
(0.26932713 -0.0002977213 1.1552469e-18)
(0.26920083 -0.00034076321 1.0500909e-18)
(0.2688728 -0.00038060158 6.6799116e-19)
(0.26808605 -0.00041417146 5.2527353e-19)
(0.26615679 -0.00043300583 3.0322052e-19)
(0.26112496 -0.00041776402 3.907726e-19)
(0.24890441 -0.00031344658 3.574697e-19)
(0.22600436 -0.00017717261 1.7333937e-19)
(0.18723056 -2.7105587e-05 1.4980356e-19)
(0.27000719 -2.8494911e-05 1.1041448e-18)
(0.27001228 -7.1969744e-05 2.4579555e-18)
(0.27002267 -0.00011471384 2.7776795e-18)
(0.27003583 -0.00016002771 2.3723343e-18)
(0.27004618 -0.00020487885 8.8184626e-19)
(0.27004119 -0.00024949516 1.3297846e-18)
(0.2699936 -0.00029330262 1.4000639e-18)
(0.26984584 -0.00033544136 8.7205087e-19)
(0.26947524 -0.00037414208 8.8273447e-19)
(0.2685986 -0.00040611399 5.5657881e-19)
(0.26645635 -0.00042205446 3.5371689e-19)
(0.2609383 -0.00040001524 3.9244168e-19)
(0.24808975 -0.00029060213 3.7420515e-19)
(0.22508629 -0.00015769827 1.9506929e-19)
(0.18655015 -2.373213e-05 1.7768279e-19)
(0.27068489 -2.8137826e-05 9.1077511e-18)
(0.2706898 -7.1043907e-05 4.4812221e-18)
(0.27069965 -0.00011323138 4.9057838e-18)
(0.27071153 -0.00015794462 3.5890931e-18)
(0.2707191 -0.00020217545 1.4565122e-18)
(0.27070829 -0.00024612933 2.1131326e-18)
(0.27064898 -0.00028920108 1.970638e-18)
(0.27047818 -0.00033047455 1.4765276e-18)
(0.27006181 -0.00036805783 1.3615654e-18)
(0.26908753 -0.00039839812 1.0401007e-19)
(0.26671278 -0.00041121648 6.5515121e-19)
(0.26068881 -0.00038211515 6.7277402e-19)
(0.24726882 -0.00026882041 6.7356268e-19)
(0.22423175 -0.00014031231 6.2521014e-19)
(0.18594537 -2.1112147e-05 4.4702678e-19)
(0.27135418 -2.7809012e-05 3.051349e-18)
(0.27135887 -7.0191041e-05 4.9203051e-18)
(0.2713681 -0.00011186497 2.1758789e-18)
(0.27137855 -0.00015602247 1.6175169e-18)
(0.27138303 -0.00019967637 2.0582693e-18)
(0.27136587 -0.00024300948 1.2486049e-18)
(0.27129391 -0.00028538386 1.2662387e-18)
(0.27109836 -0.000325823 9.9852823e-19)
(0.27063272 -0.00036230005 8.0319051e-19)
(0.26955206 -0.00039095432 2.9695097e-19)
(0.26692403 -0.00040037783 3.8049531e-19)
(0.26038022 -0.00036410564 4.1216782e-19)
(0.24645221 -0.00024818088 4.7704178e-19)
(0.22343841 -0.00012495718 5.3134851e-19)
(0.18540672 -1.9041832e-05 3.7166093e-19)
(0.27201571 -2.7505236e-05 2.3592223e-18)
(0.27202015 -6.94031e-05 3.2374708e-18)
(0.27202866 -0.00011060176 2.500271e-18)
(0.27203751 -0.00015424331 2.0170496e-18)
(0.2720386 -0.00019735858 2.1999718e-18)
(0.27201452 -0.00024010733 1.3230452e-18)
(0.27192892 -0.00028181693 1.1684213e-18)
(0.2717068 -0.00032144525 1.0970231e-18)
(0.27118802 -0.00035681747 8.1923699e-19)
(0.2699912 -0.00038370884 4.523363e-19)
(0.26708822 -0.000389429 3.2319742e-19)
(0.26001771 -0.00034605163 4.6840681e-19)
(0.24564917 -0.00022875086 4.3165819e-19)
(0.22270325 -0.00011151162 5.4140995e-19)
(0.18492573 -1.7355845e-05 3.2044521e-19)
(0.27267005 -2.7223403e-05 -1.4037401e-19)
(0.27267421 -6.8672269e-05 2.3954278e-19)
(0.27268192 -0.00010942927 1.2397787e-18)
(0.27268898 -0.00015258973 1.8789359e-18)
(0.27268634 -0.00019519966 2.0145347e-18)
(0.27265476 -0.00023739527 1.1664817e-18)
(0.27255447 -0.00027846699 1.107907e-18)
(0.2723038 -0.00031730047 1.2036667e-18)
(0.27172757 -0.00035155884 7.8664377e-19)
(0.27040369 -0.00037658611 6.7324788e-19)
(0.26720375 -0.00037827411 2.2435703e-19)
(0.25960771 -0.00032803713 4.8395298e-19)
(0.24486735 -0.00021058183 4.570243e-19)
(0.22202277 -9.9808139e-05 3.5722425e-19)
(0.18449494 -1.5929485e-05 3.4364339e-19)
(0.27331772 -2.6960667e-05 2.0530601e-18)
(0.27332155 -6.7991274e-05 3.5746156e-18)
(0.27332837 -0.00010833587 3.1522995e-18)
(0.27333345 -0.00015104547 1.6447847e-18)
(0.27332673 -0.00019317869 9.1471802e-19)
(0.27328702 -0.00023484751 1.2773001e-18)
(0.27317093 -0.0002753027 1.1445512e-18)
(0.27288957 -0.0003133499 1.1160528e-18)
(0.27225107 -0.00034647442 7.1258961e-19)
(0.27078808 -0.00036951039 6.5919223e-19)
(0.26726952 -0.00036683813 3.5339748e-19)
(0.25915765 -0.0003101602 5.0563643e-19)
(0.24411266 -0.00019370463 4.1446495e-19)
(0.22139331 -8.96524e-05 3.1849155e-19)
(0.1841079 -1.4675689e-05 3.6574279e-19)
(0.27395916 -2.6714475e-05 7.5817459e-18)
(0.27396262 -6.7353542e-05 3.6086891e-18)
(0.27396843 -0.00010731104 4.373349e-18)
(0.27397134 -0.00014959583 3.2108888e-18)
(0.27396016 -0.00019127671 1.7495113e-18)
(0.27391168 -0.00023244055 2.0479809e-18)
(0.2737786 -0.00027229533 1.8883448e-18)
(0.27346419 -0.00030955757 1.5064848e-18)
(0.27275806 -0.00034151676 1.2280503e-18)
(0.27114274 -0.00036240703 5.295187e-19)
(0.26728512 -0.00035507154 7.7402554e-19)
(0.25867552 -0.00029252748 6.6979203e-19)
(0.24338933 -0.0001781252 6.8995757e-19)
(0.22081116 -8.084119e-05 6.8889823e-19)
(0.18375901 -1.3538667e-05 4.6593464e-19)
(0.27459475 -2.6482589e-05 1.8342372e-18)
(0.2745978 -6.675326e-05 3.4448893e-18)
(0.27460249 -0.0001063455 2.2300474e-18)
(0.274603 -0.0001482278 2.2653483e-18)
(0.27458699 -0.00018947691 2.8733499e-18)
(0.27452902 -0.00023015345 1.5493303e-18)
(0.27437767 -0.00026941895 1.1991544e-18)
(0.27402763 -0.00030589064 9.3903811e-19)
(0.27324789 -0.00033664079 7.8024413e-19)
(0.27146593 -0.0003552038 4.5823136e-19)
(0.26725094 -0.00034295249 4.591204e-19)
(0.25816956 -0.00027524859 2.6092401e-19)
(0.24270004 -0.00016382254 4.4930344e-19)
(0.22027275 -7.3177105e-05 4.4406125e-19)
(0.18344349 -1.2486086e-05 2.9456183e-19)
(0.27522481 -2.6263072e-05 2.5190685e-18)
(0.27522741 -6.6185367e-05 4.607101e-18)
(0.27523087 -0.00010543114 3.1194309e-18)
(0.27522875 -0.00014693 2.2819231e-18)
(0.27520748 -0.00018776455 2.5406038e-18)
(0.2751393 -0.00022796774 1.7928467e-18)
(0.27496829 -0.00026665041 1.2542699e-18)
(0.27457978 -0.00030231921 8.1528397e-19)
(0.27371976 -0.0003318036 6.9206049e-19)
(0.27175586 -0.00034783257 4.7975515e-19)
(0.26716832 -0.00033048644 4.9602343e-19)
(0.25764777 -0.00025843059 4.9057377e-19)
(0.24204621 -0.00015074939 5.2942781e-19)
(0.21977469 -6.6478878e-05 3.4079389e-19)
(0.18315725 -1.1501418e-05 2.9878007e-19)
(0.27584964 -2.6054261e-05 2.2822814e-18)
(0.27585173 -6.5645511e-05 2.7355179e-18)
(0.27585383 -0.00010456099 1.7893009e-18)
(0.27584885 -0.00014569263 2.1498707e-18)
(0.27582189 -0.00018612688 2.4366709e-18)
(0.2757427 -0.00022586725 1.5360367e-18)
(0.27555053 -0.00026396905 1.3031502e-18)
(0.27512041 -0.00029881615 9.3917002e-19)
(0.27417268 -0.00032696405 7.037734e-19)
(0.27201082 -0.00034023144 9.6783383e-19)
(0.26703956 -0.00031770398 5.2038766e-19)
(0.25711762 -0.00024217266 5.9010228e-19)
(0.24142819 -0.0001388359 3.6950887e-19)
(0.21931381 -6.0587295e-05 3.4399561e-19)
(0.18289682 -1.0577464e-05 2.6262893e-19)
(0.27646948 -2.5854749e-05 3.8538265e-18)
(0.27647102 -6.512998e-05 5.0389156e-18)
(0.27647162 -0.00010372909 3.3181156e-18)
(0.27646352 -0.0001445073 2.2905412e-18)
(0.2764304 -0.00018455289 1.3606224e-18)
(0.27633935 -0.00022383791 1.1622972e-18)
(0.27612438 -0.00026135648 9.2746262e-19)
(0.27564919 -0.00029535665 1.0007034e-18)
(0.27460555 -0.00032208225 8.3217414e-19)
(0.27222923 -0.0003323472 9.2309842e-19)
(0.26686787 -0.00030465718 6.0835563e-19)
(0.25658579 -0.00022656124 6.364902e-19)
(0.2408456 -0.00012799525 4.9274544e-19)
(0.21888719 -5.5367358e-05 4.6638723e-19)
(0.18265925 -9.711575e-06 2.7626116e-19)
(0.27708455 -2.5663344e-05 6.9618385e-18)
(0.27708548 -6.463563e-05 5.1823711e-18)
(0.27708444 -0.0001029304 4.9734444e-18)
(0.27707295 -0.00014336686 3.8576006e-18)
(0.27703318 -0.00018303314 1.2653028e-18)
(0.27692935 -0.00022186743 1.9916865e-18)
(0.2766898 -0.00025879623 1.9940183e-18)
(0.27616569 -0.00029191777 1.6172671e-18)
(0.27501711 -0.00031711915 1.179015e-18)
(0.27240981 -0.00032413773 6.0531466e-19)
(0.26665728 -0.00029141516 8.8043024e-19)
(0.256058 -0.00021166602 8.7308896e-19)
(0.24029748 -0.00011813046 1.0154773e-18)
(0.21849214 -5.0707634e-05 8.04107e-19)
(0.18244204 -8.902528e-06 5.1287501e-19)
(0.27769504 -2.5479044e-05 1.2291049e-18)
(0.27769529 -6.4159805e-05 4.0290273e-18)
(0.27769247 -0.00010216064 3.4305487e-18)
(0.27767729 -0.00014226521 3.0023454e-18)
(0.27763035 -0.0001815595 2.515025e-18)
(0.27751275 -0.00021994503 1.7618615e-18)
(0.27724666 -0.00025627339 1.4124793e-18)
(0.27666938 -0.00028847796 9.1130407e-19)
(0.275406 -0.00031203634 4.964591e-19)
(0.27255164 -0.0003155742 5.6429327e-19)
(0.26641246 -0.00027805925 3.9093611e-19)
(0.25553894 -0.0001975371 3.7421489e-19)
(0.23978254 -0.00010914112 3.8776295e-19)
(0.21812621 -4.6517854e-05 4.0785996e-19)
(0.18224308 -8.1488504e-06 3.1886692e-19)
(0.27830111 -2.5301005e-05 3.0640695e-18)
(0.27830062 -6.3700268e-05 3.3122157e-18)
(0.27829586 -0.0001014162 3.2822558e-18)
(0.2782767 -0.00014119716 2.8606959e-18)
(0.278222 -0.00018012493 2.8441484e-18)
(0.27808956 -0.00021806116 1.8207857e-18)
(0.2777948 -0.00025377436 1.0876985e-18)
(0.27715962 -0.0002850166 6.8258808e-19)
(0.27577079 -0.00030679609 4.8325011e-19)
(0.27265429 -0.00030664248 4.2986697e-19)
(0.26613848 -0.00026467813 5.2792637e-19)
(0.2550323 -0.00018420368 4.4321371e-19)
(0.23929925 -0.00010092916 3.6184238e-19)
(0.21778713 -4.2725642e-05 3.5173133e-19)
(0.18206056 -7.4481411e-06 3.0991903e-19)
(0.27890291 -2.5128515e-05 1.4398445e-18)
(0.27890162 -6.3255126e-05 7.6174368e-19)
(0.27889474 -0.00010069401 1.7725684e-18)
(0.27887126 -0.00014015826 2.6575551e-18)
(0.27880821 -0.00017872332 2.4296527e-18)
(0.27865976 -0.00021620724 1.7180327e-18)
(0.27833397 -0.00025128651 1.1622706e-18)
(0.27763569 -0.00028151345 8.0999268e-19)
(0.27611001 -0.00030136189 6.7070994e-19)
(0.2727179 -0.00029734386 8.4601626e-19)
(0.26584062 -0.00025136318 7.2634684e-19)
(0.25454084 -0.0001716744 5.8532433e-19)
(0.23884602 -9.3403166e-05 4.5955046e-19)
(0.21747286 -3.9273089e-05 4.5105725e-19)
(0.18189296 -6.7970343e-06 3.5985207e-19)
(0.27950056 -2.4960971e-05 -2.4407283e-18)
(0.2794984 -6.2822773e-05 4.0020642e-18)
(0.27948922 -9.9991431e-05 2.2508799e-18)
(0.27946108 -0.00013914466 1.4003182e-18)
(0.279389 -0.00017734922 1.8270675e-18)
(0.27922329 -0.00021437542 9.673025e-19)
(0.27886389 -0.00024879793 7.0015823e-19)
(0.27809674 -0.00027794829 3.3582968e-19)
(0.27642222 -0.00029569921 4.4992294e-19)
(0.27274323 -0.00028769475 7.2966875e-19)
(0.2655241 -0.00023820407 2.8568144e-19)
(0.25406651 -0.00015993914 3.0604226e-19)
(0.23842119 -8.6481065e-05 7.7987627e-20)
(0.21718151 -3.611362e-05 1.1383742e-19)
(0.18173897 -6.1914791e-06 1.726095e-19)
(0.28009418 -2.4797856e-05 2.5459853e-18)
(0.28009107 -6.2401833e-05 3.8308969e-18)
(0.28007941 -9.9306213e-05 3.9891486e-18)
(0.28004623 -0.00013815299 1.6566319e-18)
(0.27996442 -0.00017599777 2.1338835e-18)
(0.27978006 -0.00021255838 9.0270768e-19)
(0.2793842 -0.00024629715 5.8371476e-19)
(0.27854186 -0.00027430051 5.9324171e-19)
(0.27670605 -0.00028977676 6.0701493e-19)
(0.27273166 -0.00027772561 5.0800366e-19)
(0.26519392 -0.00022528493 1.8445818e-19)
(0.25361059 -0.00014897208 2.1638638e-19)
(0.23802316 -8.0091252e-05 2.0714679e-19)
(0.21691137 -3.3209353e-05 1.5992274e-19)
(0.18159747 -5.6271065e-06 1.3464717e-19)
(0.28068388 -2.4638721e-05 4.0119624e-18)
(0.28067974 -6.1991113e-05 3.5456357e-18)
(0.28066539 -9.8636369e-05 3.5342805e-18)
(0.28062676 -0.00013718022 2.0430072e-18)
(0.28053445 -0.00017466447 2.2179738e-18)
(0.28032993 -0.00021074911 9.1277959e-19)
(0.27989449 -0.00024377295 2.660839e-19)
(0.27897002 -0.0002705489 5.0989893e-19)
(0.27696025 -0.00028356786 4.6262421e-19)
(0.27268518 -0.00026747916 6.1326611e-19)
(0.26485469 -0.00021268094 1.9780318e-19)
(0.25317379 -0.00013873551 1.3202566e-19)
(0.23765034 -7.4172541e-05 1.5873193e-19)
(0.2166609 -3.0529049e-05 1.0177218e-19)
(0.18146749 -5.0995767e-06 1.1058042e-19)
(0.28126974 -2.4483172e-05 1.9400197e-18)
(0.28126449 -6.1589565e-05 6.6564732e-18)
(0.28124722 -9.7980135e-05 2.5347765e-18)
(0.28120271 -0.00013622364 3.5967127e-19)
(0.28109907 -0.00017334514 5.0211422e-19)
(0.28087275 -0.00020894082 3.0755666e-19)
(0.28039427 -0.00024121406 -3.314626e-19)
(0.27938014 -0.00026667151 -2.9281709e-19)
(0.27718382 -0.00027705192 -1.1831527e-19)
(0.27260633 -0.00025700813 2.2962079e-19)
(0.26451052 -0.00020045589 -5.5588676e-20)
(0.25275643 -0.00012918381 -3.9916094e-19)
(0.23730122 -6.8673302e-05 -3.258486e-19)
(0.21642866 -2.8046579e-05 -3.095678e-19)
(0.18134818 -4.6048219e-06 -1.0581689e-19)
(0.28185185 -2.4330855e-05 2.2207641e-18)
(0.28184539 -6.119625e-05 5.4231319e-18)
(0.28182498 -9.7335907e-05 2.9511665e-18)
(0.28177412 -0.00013528067 7.6704257e-19)
(0.28165823 -0.00017203573 6.9261847e-19)
(0.2814083 -0.00020712676 5.8585005e-19)
(0.28088299 -0.00023860899 2.4708911e-20)
(0.27977106 -0.0002626457 -1.3114484e-19)
(0.27737601 -0.00027021575 4.7930678e-20)
(0.27249806 -0.00024637258 2.2659119e-19)
(0.26416497 -0.00018866042 9.8643367e-20)
(0.2523585 -0.00012026725 -3.9079776e-19)
(0.23697438 -6.3550149e-05 -3.4128024e-19)
(0.21621337 -2.5739835e-05 -3.9557513e-19)
(0.18123881 -4.139213e-06 -1.4097121e-19)
(0.28243029 -2.4181448e-05 3.5283272e-18)
(0.28242252 -6.0810307e-05 4.0412389e-18)
(0.28239871 -9.6702197e-05 3.8032151e-18)
(0.28234099 -0.00013434892 2.854871e-18)
(0.28221186 -0.00017073227 2.2781727e-18)
(0.28193636 -0.00020530013 1.3075211e-18)
(0.28136003 -0.00023594579 7.5879955e-19)
(0.2801416 -0.00025844846 6.5050615e-19)
(0.27753642 -0.00026305462 4.1672209e-19)
(0.27236366 -0.00023563727 2.1920361e-19)
(0.26382105 -0.00017733137 3.5039562e-19)
(0.25197976 -0.00011193521 1.2193473e-19)
(0.23666845 -5.8766506e-05 4.4812745e-20)
(0.21601387 -2.3589934e-05 8.0314333e-20)
(0.1811387 -3.6996029e-06 1.1331436e-19)
(0.28300512 -2.4034648e-05 1.6849746e-18)
(0.28299594 -6.0430937e-05 1.2901769e-18)
(0.28296845 -9.6077594e-05 3.1835347e-18)
(0.28290332 -0.00013342601 2.6696825e-18)
(0.28275987 -0.00016943077 1.8435941e-18)
(0.28245663 -0.00020345397 1.4537945e-18)
(0.28182471 -0.00023321186 8.9403991e-19)
(0.28049057 -0.0002540569 5.8259574e-19)
(0.27766504 -0.00025557285 4.6721967e-19)
(0.27220658 -0.0002248688 4.7257032e-19)
(0.26348123 -0.00016649191 2.7938233e-19)
(0.25161982 -0.00010413863 2.6212991e-19)
(0.23638216 -5.4291235e-05 5.3623692e-20)
(0.21582908 -2.1580668e-05 2.6576306e-19)
(0.18104728 -3.2833442e-06 1.2263409e-19)
(0.2835764 -2.3890167e-05 1.7286236e-18)
(0.28356569 -6.0057379e-05 2.8545466e-18)
(0.28353424 -9.5460737e-05 2.2755605e-18)
(0.2834611 -0.00013250962 2.1897741e-18)
(0.28330215 -0.00016812718 1.5131057e-18)
(0.28296879 -0.00020158114 1.5087692e-18)