/*--------------------------------*- C++ -*----------------------------------*\
| =========                 |                                                 |
| \\      /  F ield         | OpenFOAM: The Open Source CFD Toolbox           |
|  \\    /   O peration     | Version:  2506                                  |
|   \\  /    A nd           | Website:  www.openfoam.com                      |
|    \\/     M anipulation  |                                                 |
\*---------------------------------------------------------------------------*/
FoamFile
{
    version     2.0;
    format      ascii;
    arch        "LSB;label=32;scalar=64";
    class       volScalarField;
    location    "27000/water";
    object      epsilon;
}
// * * * * * * * * * * * * * * * * * * * * * * * * * * * * * * * * * * * * * //

dimensions      [0 2 -3 0 0 0 0];

internalField   nonuniform List<scalar> 
1000
(
7.2399316e-05
7.2397808e-05
7.2397502e-05
7.2398682e-05
7.2424146e-05
7.2686938e-05
7.4736184e-05
8.8973295e-05
0.00019794853
0.0013048048
4.7739543e-05
4.7745807e-05
4.7746167e-05
4.7748745e-05
4.7810065e-05
4.8371228e-05
5.2145895e-05
7.5319313e-05
0.00023607335
0.0016574915
3.3261229e-05
3.326441e-05
3.3263962e-05
3.3272039e-05
3.3396639e-05
3.4348945e-05
3.9973166e-05
7.1502216e-05
0.00026550026
0.0016622
2.4212884e-05
2.4213778e-05
2.421353e-05
2.4236018e-05
2.4468828e-05
2.5979964e-05
3.4086702e-05
7.6375304e-05
0.00030233611
0.0015600258
1.8263229e-05
1.8263302e-05
1.8265922e-05
1.8318446e-05
1.8730721e-05
2.1090714e-05
3.2935553e-05
9.042303e-05
0.00035053528
0.0014605595
1.4183053e-05
1.4183388e-05
1.4193787e-05
1.4301413e-05
1.5003318e-05
1.8678152e-05
3.6167958e-05
0.00011337703
0.00040230456
0.0013944161
1.1285033e-05
1.1287109e-05
1.1313191e-05
1.1514087e-05
1.2672052e-05
1.8360648e-05
4.3854142e-05
0.00014255066
0.00044702313
0.0013593137
9.1651308e-06
9.1712237e-06
9.2251471e-06
9.5765172e-06
1.143767e-05
2.0107197e-05
5.5828175e-05
0.00017322852
0.00047957513
0.0013440709
7.5754962e-06
7.5890768e-06
7.6892452e-06
8.2761037e-06
1.1198213e-05
2.4041207e-05
7.1186914e-05
0.0002009902
0.00050080697
0.0013390502
6.3585386e-06
6.3848727e-06
6.5589458e-06
7.5064235e-06
1.1984529e-05
3.023611e-05
8.8277358e-05
0.00022355908
0.00051393028
0.0013385661
5.4111025e-06
5.4581715e-06
5.7474941e-06
7.2369321e-06
1.3906683e-05
3.8515451e-05
0.00010524314
0.00024078298
0.00052197898
0.0013399583
4.6642397e-06
4.7441301e-06
5.2100527e-06
7.4969454e-06
1.7086998e-05
4.8355536e-05
0.0001206823
0.00025359524
0.00052708029
0.0013422097
4.0714678e-06
4.2024401e-06
4.9349801e-06
8.3622573e-06
2.1575432e-05
5.8975441e-05
0.00013393048
0.00026313391
0.00053055236
0.001345016
3.6019036e-06
3.8114131e-06
4.9402434e-06
9.9351077e-06
2.7272198e-05
6.9567063e-05
0.00014492626
0.00027035431
0.00053316277
0.0013483147
3.2363933e-06
3.5653612e-06
5.2715556e-06
1.2311464e-05
3.3901728e-05
7.9510782e-05
0.00015392461
0.00027595655
0.0005353413
0.0013520947
2.9656646e-06
3.4742266e-06
5.9984236e-06
1.5537542e-05
4.1062823e-05
8.8461135e-05
0.00016127382
0.00028042577
0.00053731736
0.0013563348
2.790014e-06
3.5645593e-06
7.2040938e-06
1.9570025e-05
4.8330147e-05
9.6307143e-05
0.00016730394
0.00028408941
0.00053917809
0.0013609733
2.7202664e-06
3.8804231e-06
8.9664107e-06
2.4261455e-05
5.5350035e-05
0.00010308382
0.00017229232
0.00028715787
0.00054093692
0.0013659404
2.7797381e-06
4.4819632e-06
1.1330792e-05
2.9383014e-05
6.1887417e-05
0.00010889364
0.00017645182
0.00028975358
0.00054267202
0.0013711897
3.0065611e-06
5.4386789e-06
1.4283556e-05
3.4674956e-05
6.7820735e-05
0.00011385644
0.00017993826
0.00029197989
0.00054443357
0.0013766825
3.4547756e-06
6.8148172e-06
1.773855e-05
3.9899635e-05
7.3111737e-05
0.00011808654
0.00018285362
0.0002939411
0.00054623574
0.0013823773
4.1911263e-06
8.6475585e-06
2.1546179e-05
4.4874671e-05
7.7769109e-05
0.00012165871
0.00018531775
0.00029569724
0.00054807353
0.0013882282
5.2835639e-06
1.0924836e-05
2.552173e-05
4.9478057e-05
8.1803698e-05
0.00012466944
0.00018741288
0.00029728413
0.00054993295
0.0013941866
6.7799141e-06
1.3574431e-05
2.9480308e-05
5.3622638e-05
8.5253225e-05
0.00012719946
0.00018919544
0.00029872149
0.00055179485
0.001400202
8.6832594e-06
1.647411e-05
3.3250077e-05
5.7259633e-05
8.8167192e-05
0.00012930792
0.00019070263
0.0003000174
0.00055363637
0.0014062215
1.0937874e-05
1.9464285e-05
3.6694196e-05
6.0377268e-05
9.0586732e-05
0.00013103671
0.00019195704
0.00030117117
0.00055543143
0.0014121883
1.3423331e-05
2.238437e-05
3.9727003e-05
6.2977906e-05
9.2544825e-05
0.00013241429
0.00019297034
0.00030217544
0.00055715115
0.0014180408
1.5988156e-05
2.5103516e-05
4.2303147e-05
6.5074389e-05
9.4068644e-05
0.00013345982
0.00019374672
0.00030301842
0.00055876461
0.0014237117
1.8484541e-05
2.7531372e-05
4.441066e-05
6.6689196e-05
9.5183083e-05
0.00013418749
0.00019428652
0.0003036865
0.00056024045
0.0014291284
2.0793627e-05
2.9617703e-05
4.6063491e-05
6.785423e-05
9.5914376e-05
0.00013461081
0.00019459006
0.00030416727
0.00056154934
0.0014342163
2.283641e-05
3.1345659e-05
4.7293992e-05
6.860991e-05
9.6292769e-05
0.0001347462
0.00019466109
0.00030445274
0.000562667
0.0014389038
2.4572674e-05
3.2722986e-05
4.8145959e-05
6.9003215e-05
9.6353695e-05
0.0001346154
0.0001945094
0.0003045419
0.00056357707
0.0014431276
2.5993412e-05
3.3773698e-05
4.8668812e-05
6.9085015e-05
9.6137443e-05
0.00013424627
0.00019415215
0.00030444224
0.00056427306
0.0014468393
2.7111431e-05
3.453126e-05
4.8913201e-05
6.8907261e-05
9.5687692e-05
0.00013367227
0.00019361376
0.00030416985
0.00056475902
0.001450009
2.7952848e-05
3.5033502e-05
4.8928018e-05
6.8520524e-05
9.5049497e-05
0.0001329308
0.00019292449
0.00030374824
0.0005650487
0.001452628
2.8550536e-05
3.5319083e-05
4.8758578e-05
6.797212e-05
9.4267196e-05
0.00013206112
0.00019211838
0.00030320614
0.00056516352
0.0014547076
2.8939578e-05
3.5425209e-05
4.844565e-05
6.7304896e-05
9.3382625e-05
0.0001311021
0.00019123074
0.00030257492
0.00056512996
0.001456277
2.9154379e-05
3.5386277e-05
4.8025088e-05
6.655657e-05
9.2433773e-05
0.00013009039
0.00019029593
0.0003018861
0.00056497679
0.0014573789
2.9226992e-05
3.5233175e-05
4.7527826e-05
6.575953e-05
9.1453951e-05
0.00012905895
0.00018934549
0.00030116919
0.00056473269
0.0014580656
2.9186276e-05
3.4993026e-05
4.698011e-05
6.4940935e-05
9.0471398e-05
0.00012803615
0.00018840688
0.00030045021
0.00056442439
0.0014583939
2.905758e-05
3.4689207e-05
4.6403844e-05
6.4123032e-05
8.9509256e-05
0.00012704537
0.00018750278
0.00029975081
0.0005640755
0.001458422
2.8862746e-05
3.4341545e-05
4.5817005e-05
6.3323584e-05
8.8585802e-05
0.00012610499
0.00018665083
0.00029908791
0.00056370587
0.0014582065
2.8620301e-05
3.3966599e-05
4.5234081e-05
6.2556362e-05
8.7714845e-05
0.0001252286
0.00018586387
0.00029847383
0.00056333151
0.0014577999
2.8345738e-05
3.3577989e-05
4.4666495e-05
6.1831648e-05
8.6906226e-05
0.00012442549
0.00018515027
0.0002979166
0.00056296449
0.0014572499
2.8051837e-05
3.3186739e-05
4.4123021e-05
6.1156724e-05
8.6166336e-05
0.00012370113
0.00018451446
0.00029742031
0.00056260911
0.0014565948
2.7748994e-05
3.2801605e-05
4.3610156e-05
6.0536344e-05
8.5498693e-05
0.00012305794
0.00018395783
0.00029698503
0.00056226343
0.0014558675
2.7445537e-05
3.2429394e-05
4.3132485e-05
5.9973179e-05
8.4904493e-05
0.00012249581
0.0001834786
0.00029660458
0.00056194024
0.0014550999
2.7148022e-05
3.2075247e-05
4.2692995e-05
5.9468213e-05
8.4383045e-05
0.0001220123
0.00018307004
0.00029628029
0.00056164624
0.0014543191
2.6861497e-05
3.1742913e-05
4.2293368e-05
5.9021088e-05
8.3932036e-05
0.00012160118
0.00018272934
0.00029601091
0.00056138431
0.0014535465
2.6589753e-05
3.1434997e-05
4.193429e-05
5.8630216e-05
8.354636e-05
0.00012125843
0.00018245245
0.00029579326
0.00056115508
0.0014527988
2.6335558e-05
3.1153183e-05
4.1615245e-05
5.8292207e-05
8.3222145e-05
0.00012097921
0.0001822342
0.00029562304
0.00056095779
0.0014520885
2.6100713e-05
3.0898029e-05
4.1334732e-05
5.8004084e-05
8.2954964e-05
0.00012075808
0.00018206882
0.00029549536
0.00056079079
0.0014514245
2.5886112e-05
3.0669425e-05
4.1091074e-05
5.7762507e-05
8.2740016e-05
0.00012058926
0.00018195027
0.00029540513
0.00056065189
0.0014508127
2.5692111e-05
3.0466849e-05
4.0882274e-05
5.756387e-05
8.2572295e-05
0.00012046682
0.00018187252
0.00029534726
0.0005605386
0.0014502564
2.5518636e-05
3.0289435e-05
4.0706088e-05
5.7404402e-05
8.2446728e-05
0.00012038492
0.00018182969
0.00029531685
0.00056044827
0.001449757
2.5365268e-05
3.0136036e-05
4.0560087e-05
5.728026e-05
8.2358294e-05
0.0001203379
0.00018181625
0.00029530934
0.00056037832
0.0014493143
2.5231311e-05
3.0005292e-05
4.0441726e-05
5.7187605e-05
8.2302126e-05
0.0001203204
0.00018182704
0.00029532055
0.00056032629
0.0014489269
2.5115853e-05
2.9895678e-05
4.0348401e-05
5.7122675e-05
8.2273578e-05
0.00012032743
0.00018185738
0.00029534673
0.0005602899
0.0014485926
2.5017813e-05
2.9805558e-05
4.0277501e-05
5.7081836e-05
8.2268284e-05
0.0001203544
0.00018190304
0.00029538458
0.00056026703
0.0014483086
2.493599e-05
2.9733229e-05
4.0226453e-05
5.7061626e-05
8.228219e-05
0.00012039715
0.00018196029
0.00029543116
0.00056025572
0.0014480717
2.4869098e-05
2.9676956e-05
4.0192755e-05
5.7058788e-05
8.2311578e-05
0.00012045196
0.00018202582
0.0002954839
0.00056025408
0.0014478784
2.48158e-05
2.9635007e-05
4.0174008e-05
5.7070295e-05
8.2353078e-05
0.00012051551
0.00018209675
0.00029554056
0.00056026034
0.0014477245
2.477474e-05
2.960568e-05
4.0167944e-05
5.7093365e-05
8.2403673e-05
0.00012058491
0.00018217063
0.00029559922
0.00056027287
0.0014476062
2.4744569e-05
2.958733e-05
4.017244e-05
5.7125477e-05
8.2460704e-05
0.00012065768
0.00018224539
0.00029565829
0.00056029023
0.0014475192
2.4723966e-05
2.9578386e-05
4.018554e-05
5.7164376e-05
8.2521856e-05
0.00012073172
0.00018231933
0.00029571649
0.00056031122
0.0014474595
2.4711654e-05
2.9577369e-05
4.0205461e-05
5.7208069e-05
8.2585151e-05
0.0001208053
0.00018239112
0.00029577283
0.00056033482
0.0014474236
2.4706423e-05
2.9582903e-05
4.0230596e-05
5.7254821e-05
8.2648923e-05
0.00012087701
0.00018245969
0.00029582655
0.00056036019
0.0014474079
2.4707133e-05
2.9593725e-05
4.0259517e-05
5.7303142e-05
8.2711792e-05
0.00012094573
0.00018252424
0.00029587706
0.00056038658
0.0014474094
2.4712726e-05
2.9608684e-05
4.0290969e-05
5.7351769e-05
8.2772638e-05
0.00012101061
0.00018258421
0.00029592394
0.0005604133
0.001447425
2.4722232e-05
2.962675e-05
4.0323862e-05
5.7399656e-05
8.2830577e-05
0.00012107099
0.00018263916
0.00029596686
0.00056043971
0.001447452
2.4734769e-05
2.9647006e-05
4.0357271e-05
5.7445951e-05
8.2884938e-05
0.00012112645
0.00018268888
0.00029600563
0.00056046528
0.0014474877
2.4749549e-05
2.9668654e-05
4.039042e-05
5.7489988e-05
8.2935241e-05
0.00012117672
0.00018273326
0.00029604017
0.0005604894
0.0014475297
2.4765877e-05
2.9691005e-05
4.0422674e-05
5.7531262e-05
8.2981177e-05
0.00012122169
0.00018277234
0.00029607046
0.00056051135
0.0014475756
2.4783146e-05
2.9713479e-05
4.0453532e-05
5.7569421e-05
8.3022586e-05
0.0001212614
0.00018280627
0.00029609642
0.00056053109
0.0014476237
2.480084e-05
2.9735595e-05
4.0482611e-05
5.7604239e-05
8.3059433e-05
0.00012129598
0.00018283515
0.00029611821
0.00056054898
0.0014476727
2.4818522e-05
2.9756965e-05
4.0509632e-05
5.7635603e-05
8.3091785e-05
0.00012132557
0.00018285919
0.00029613631
0.00056056519
0.0014477217
2.4835836e-05
2.9777287e-05
4.0534414e-05
5.7663494e-05
8.3119739e-05
0.00012135035
0.00018287884
0.00029615111
0.00056057978
0.0014477698
2.4852494e-05
2.9796334e-05
4.0556856e-05
5.7687929e-05
8.3143432e-05
0.00012137071
0.00018289452
0.00029616295
0.00056059277
0.0014478163
2.4868278e-05
2.9813951e-05
4.0576888e-05
5.7708975e-05
8.3163143e-05
0.00012138704
0.00018290666
0.00029617212
0.00056060418
0.0014478605
2.4883017e-05
2.9830013e-05
4.0594507e-05
5.7726799e-05
8.3179182e-05
0.00012139973
0.00018291564
0.00029617891
0.00056061402
0.0014479018
2.4896582e-05
2.9844454e-05
4.0609769e-05
5.7741607e-05
8.3191882e-05
0.00012140918
0.00018292186
0.00029618361
0.00056062236
0.00144794
2.4908895e-05
2.9857257e-05
4.0622778e-05
5.7753634e-05
8.3201585e-05
0.0001214158
0.00018292568
0.0002961865
0.0005606293
0.0014479746
2.491992e-05
2.9868447e-05
4.0633666e-05
5.7763134e-05
8.3208636e-05
0.00012141996
0.00018292748
0.00029618786
0.00056063496
0.0014480057
2.4929658e-05
2.9878079e-05
4.064259e-05
5.7770369e-05
8.3213374e-05
0.00012142202
0.00018292759
0.00029618796
0.0005606395
0.0014480333
2.4938137e-05
2.9886234e-05
4.0649721e-05
5.7775601e-05
8.3216123e-05
0.00012142233
0.00018292633
0.00029618704
0.00056064304
0.0014480574
2.4945408e-05
2.989301e-05
4.0655234e-05
5.7779085e-05
8.3217189e-05
0.00012142121
0.00018292397
0.0002961853
0.00056064571
0.0014480784
2.4951536e-05
2.9898514e-05
4.0659309e-05
5.7781067e-05
8.3216857e-05
0.00012141894
0.00018292076
0.00029618293
0.0005606476
0.0014480963
2.4956602e-05
2.9902863e-05
4.0662122e-05
5.7781778e-05
8.3215386e-05
0.00012141577
0.00018291692
0.00029618009
0.00056064881
0.0014481114
2.4960693e-05
2.9906174e-05
4.0663842e-05
5.7781433e-05
8.3213012e-05
0.00012141193
0.00018291264
0.00029617691
0.00056064941
0.0014481238
2.4963899e-05
2.9908568e-05
4.0664632e-05
5.778023e-05
8.3209948e-05
0.00012140762
0.00018290809
0.00029617352
0.0005606495
0.0014481338
2.4966313e-05
2.991016e-05
4.0664644e-05
5.777835e-05
8.3206382e-05
0.00012140301
0.0001829034
0.00029617001
0.00056064915
0.0014481415
2.4968029e-05
2.9911063e-05
4.0664018e-05
5.7775954e-05
8.320248e-05
0.00012139826
0.0001828987
0.00029616649
0.00056064845
0.0014481472
2.4969137e-05
2.9911381e-05
4.0662883e-05
5.7773187e-05
8.3198384e-05
0.00012139349
0.00018289409
0.00029616303
0.0005606475
0.0014481511
2.4969724e-05
2.9911216e-05
4.0661356e-05
5.7770174e-05
8.3194217e-05
0.0001213888
0.00018288966
0.00029615971
0.00056064636
0.0014481535
2.4969873e-05
2.9910657e-05
4.065954e-05
5.7767023e-05
8.3190077e-05
0.00012138428
0.00018288546
0.00029615656
0.00056064511
0.0014481546
2.496966e-05
2.9909789e-05
4.0657525e-05
5.7763825e-05
8.3186048e-05
0.00012137999
0.00018288155
0.00029615363
0.00056064379
0.0014481547
2.4969154e-05
2.9908684e-05
4.0655389e-05
5.7760654e-05
8.3182191e-05
0.00012137598
0.00018287794
0.00029615093
0.00056064243
0.0014481539
2.4968419e-05
2.9907409e-05
4.0653197e-05
5.775757e-05
8.3178555e-05
0.00012137228
0.00018287467
0.00029614847
0.00056064107
0.0014481525
2.4967511e-05
2.9906021e-05
4.0651007e-05
5.7754623e-05
8.3175175e-05
0.00012136891
0.00018287172
0.00029614626
0.00056063971
0.0014481505
2.4966484e-05
2.9904573e-05
4.064887e-05
5.775186e-05
8.3172085e-05
0.00012136588
0.0001828691
0.00029614426
0.00056063835
0.0014481481
)
;

boundaryField
{
    water_inlet
    {
        type            turbulentMixingLengthDissipationRateInlet;
        mixingLength    0.005;
        phi             phi;
        k               k;
        value           uniform 0.00011791765;
    }
    water_outlet
    {
        type            inletOutlet;
        inletValue      uniform 0.0001;
        value           nonuniform List<scalar> 10(2.4966484e-05 2.9904573e-05 4.064887e-05 5.775186e-05 8.3172085e-05 0.00012136588 0.0001828691 0.00029614426 0.00056063835 0.0014481481);
    }
    water_wedge1
    {
        type            wedge;
    }
    water_wedge2
    {
        type            wedge;
    }
    water_to_rock
    {
        type            epsilonWallFunction;
        blending        stepwise;
        value           nonuniform List<scalar> 
100
(
0.0013048048
0.0016574915
0.0016622
0.0015600258
0.0014605595
0.0013944161
0.0013593137
0.0013440709
0.0013390502
0.0013385661
0.0013399583
0.0013422097
0.001345016
0.0013483147
0.0013520947
0.0013563348
0.0013609733
0.0013659404
0.0013711897
0.0013766825
0.0013823773
0.0013882282
0.0013941866
0.001400202
0.0014062215
0.0014121883
0.0014180408
0.0014237117
0.0014291284
0.0014342163
0.0014389038
0.0014431276
0.0014468393
0.001450009
0.001452628
0.0014547076
0.001456277
0.0014573789
0.0014580656
0.0014583939
0.001458422
0.0014582065
0.0014577999
0.0014572499
0.0014565948
0.0014558675
0.0014550999
0.0014543191
0.0014535465
0.0014527988
0.0014520885
0.0014514245
0.0014508127
0.0014502564
0.001449757
0.0014493143
0.0014489269
0.0014485926
0.0014483086
0.0014480717
0.0014478784
0.0014477245
0.0014476062
0.0014475192
0.0014474595
0.0014474236
0.0014474079
0.0014474094
0.001447425
0.001447452
0.0014474877
0.0014475297
0.0014475756
0.0014476237
0.0014476727
0.0014477217
0.0014477698
0.0014478163
0.0014478605
0.0014479018
0.00144794
0.0014479746
0.0014480057
0.0014480333
0.0014480574
0.0014480784
0.0014480963
0.0014481114
0.0014481238
0.0014481338
0.0014481415
0.0014481472
0.0014481511
0.0014481535
0.0014481546
0.0014481547
0.0014481539
0.0014481525
0.0014481505
0.0014481481
)
;
    }
}


// ************************************************************************* //
