/*--------------------------------*- C++ -*----------------------------------*\
| =========                 |                                                 |
| \\      /  F ield         | OpenFOAM: The Open Source CFD Toolbox           |
|  \\    /   O peration     | Version:  2506                                  |
|   \\  /    A nd           | Website:  www.openfoam.com                      |
|    \\/     M anipulation  |                                                 |
\*---------------------------------------------------------------------------*/
FoamFile
{
    version     2.0;
    format      ascii;
    arch        "LSB;label=32;scalar=64";
    class       surfaceScalarField;
    location    "27000/water";
    object      phi;
}
// * * * * * * * * * * * * * * * * * * * * * * * * * * * * * * * * * * * * * //

dimensions      [1 0 -1 0 0 0 0];

oriented        oriented;

internalField   nonuniform List<scalar> 
1890
(
-4.1736246e-05
0.0022168351
-0.00015753622
0.0059586937
-0.00032930669
0.0087985477
-0.00054203242
0.010900937
-0.00078239503
0.012402155
-0.0010351825
0.013412336
-0.0012746193
0.014013996
-0.0014359745
0.014245356
-0.001284859
0.0140006
0.012745539
-3.1455821e-05
0.0022482909
-0.00011269722
0.0060399351
-0.00023219386
0.0089180443
-0.00037999424
0.011048737
-0.00054594258
0.012568103
-0.00071649907
0.013582893
-0.0008667452
0.014164242
-0.00093361965
0.01431223
-0.00073394519
0.013800926
0.012011594
-2.9138825e-05
0.0022774298
-0.00010672995
0.0061175262
-0.00022105542
0.0090323698
-0.0003616033
0.011189285
-0.00051700147
0.012723501
-0.00067116241
0.013737054
-0.00079396192
0.014287042
-0.00081139797
0.014329666
-0.00056729949
0.013556827
0.011444294
-2.7339933e-05
0.0023047697
-0.00010102596
0.0061912122
-0.00020924235
0.0091405862
-0.00034097894
0.011321022
-0.00048374661
0.012866269
-0.00061911474
0.013872422
-0.00071088159
0.014378809
-0.00067659913
0.014295384
-0.00042026133
0.01330049
0.011024033
-2.5625224e-05
0.0023303949
-9.4386115e-05
0.0062599731
-0.00019506684
0.0092412669
-0.00031669849
0.011442653
-0.00044589475
0.012995465
-0.00056132351
0.013987851
-0.000618827
0.014436312
-0.00053651257
0.01421307
-0.00029565524
0.013059632
0.010728378
-2.4159481e-05
0.0023545544
-8.8799456e-05
0.0063246131
-0.00018306039
0.0093355278
-0.00029574158
0.011555335
-0.00041210871
0.013111832
-0.00050662309
0.014082365
-0.00052703679
0.014456726
-0.00040878519
0.014094818
-0.00020043335
0.01285128
0.010527944
-2.2965476e-05
0.0023775199
-8.433345e-05
0.0063859811
-0.00017335339
0.0094245478
-0.00027826863
0.01166025
-0.00038232707
0.013215891
-0.0004543792
0.014154417
-0.00043820603
0.014440553
-0.0003032171
0.013959829
-0.0001337888
0.012681852
0.010394156
-2.202384e-05
0.0023995437
-8.076978e-05
0.006444727
-0.00016540577
0.0095091838
-0.00026327208
0.011758116
-0.00035472715
0.013307346
-0.00040244416
0.014202134
-0.00035545965
0.014393568
-0.00022237
0.013826739
-8.9855921e-05
0.012549338
0.0103043
-2.1260562e-05
0.0024208043
-7.7812588e-05
0.0065012791
-0.00015855233
0.0095899235
-0.00024948538
0.011849049
-0.0003271226
0.013384983
-0.00034954637
0.014224558
-0.00028212958
0.014326152
-0.00016300262
0.013707612
-6.1426283e-05
0.012447762
0.010242873
-2.0607151e-05
0.0024414115
-7.5216654e-05
0.0065558886
-0.00015223236
0.0096669392
-0.00023577773
0.011932595
-0.00029784635
0.013447052
-0.0002964478
0.014223159
-0.00022023874
0.014249942
-0.00011980471
0.013607178
-4.2688983e-05
0.012370646
0.010200184
-2.0018285e-05
0.0024614297
-7.2804702e-05
0.006608675
-0.00014600133
0.0097401358
-0.00022120571
0.012007799
-0.00026613506
0.013491981
-0.00024531945
0.014202344
-0.00016974774
0.014174371
-8.7951117e-05
0.013525382
-2.9805655e-05
0.012312501
0.010170379
-1.9463546e-05
0.0024808933
-7.044143e-05
0.0066596528
-0.00013947753
0.0098091719
-0.00020502198
0.012073343
-0.00023228111
0.01351924
-0.00019838527
0.014168448
-0.00012919794
0.014105183
-6.3919063e-05
0.013460103
-2.0486303e-05
0.012269068
0.010149892
-1.891875e-05
0.002499812
-6.8008127e-05
0.0067087422
-0.00013229875
0.0098734625
-0.00018675584
0.012127801
-0.00019748215
0.013529967
-0.00015698097
0.014127947
-9.6701394e-05
0.014044904
-4.5355909e-05
0.013408757
-1.3427312e-05
0.012237139
0.010136465
-1.836039e-05
0.0025181724
-6.5381801e-05
0.0067557636
-0.00012410694
0.0099321876
-0.00016633462
0.012170028
-0.00016333322
0.013526965
-0.00012140717
0.014086021
-7.0530653e-05
0.013994027
-3.072007e-05
0.013368947
-7.8896492e-06
0.012214309
0.010128575
-1.7761418e-05
0.0025359338
-6.2419615e-05
0.0068004218
-0.00011457681
0.0099843448
-0.0001441623
0.012199614
-0.0001312395
0.013514042
-9.127242e-05
0.014046054
-4.9295025e-05
0.01395205
-1.898501e-05
0.013338637
-3.4316961e-06
0.012198755
0.010125144
-1.7087912e-05
0.0025530217
-5.895244e-05
0.0068422863
-0.00010349004
0.010028882
-0.00012105189
0.012217176
-0.00010208198
0.013495072
-6.5897424e-05
0.014009869
-3.1930058e-05
0.013918082
-9.4489297e-06
0.013316156
2.8812766e-07
0.012189018
0.010125432
-1.629646e-05
0.0025693182
-5.4793126e-05
0.006880783
-9.0831759e-05
0.010064921
-9.7997753e-05
0.012224341
-7.620851e-05
0.013473283
-4.4570276e-05
0.013978231
-1.7625351e-05
0.013891138
-1.5557045e-06
0.013300086
3.3726463e-06
0.01218409
0.010128805
-1.5331763e-05
0.0025846499
-4.9761862e-05
0.0069152131
-7.6852286e-05
0.010092011
-7.5898121e-05
0.012223387
-5.3588615e-05
0.013450974
-2.6634459e-05
0.013951277
-5.7255777e-06
0.013870229
4.9976281e-06
0.013289363
5.8492454e-06
0.012183238
0.010134654
-1.4126767e-05
0.0025987767
-4.3732797e-05
0.0069448191
-6.204459e-05
0.010110323
-5.538053e-05
0.012216723
-3.3987624e-05
0.013429581
-1.1514145e-05
0.013928803
4.2350951e-06
0.013854479
1.036599e-05
0.013283232
7.8656378e-06
0.012185739
0.010142519
-1.2609232e-05
0.0026113859
-3.6695188e-05
0.0069689051
-4.7032656e-05
0.010120661
-3.6777697e-05
0.012206468
-1.70839e-05
0.013409887
1.3243309e-06
0.013910395
1.2523018e-05
0.013843281
1.4770533e-05
0.013280984
9.5137102e-06
0.012190995
0.010152033
-1.0718799e-05
0.0026221047
-2.8801674e-05
0.0069869879
-3.2422105e-05
0.010124281
-2.0184419e-05
0.012194231
-2.4849202e-06
0.013392187
1.2167411e-05
0.013895743
1.9372294e-05
0.013836076
1.8385964e-05
0.013281971
1.0859341e-05
0.012198522
0.010162893
-8.4364861e-06
0.0026305412
-2.0370125e-05
0.0069989216
-1.8686176e-05
0.010122597
-5.5198389e-06
0.012181064
1.0028828e-05
0.013376639
2.1194687e-05
0.013884577
2.502142e-05
0.013832249
2.1343112e-05
0.013285649
1.1950131e-05
0.012207915
0.010174843
-5.8190401e-06
0.0026363603
-1.1825671e-05
0.0070049283
-6.1106978e-06
0.010116882
7.2770685e-06
0.012167677
2.0571352e-05
0.013363345
2.8685536e-05
0.013876463
2.9655404e-05
0.013831279
2.3739079e-05
0.013291565
1.2819813e-05
0.012218834
0.010187662
-3.0140959e-06
0.0026393744
-3.5954504e-06
0.0070055096
5.1040814e-06
0.010108183
1.819316e-05
0.012154588
2.9357538e-05
0.01335218
3.4843579e-05
0.013870977
3.3410571e-05
0.013832712
2.5644051e-05
0.013299332
1.3492016e-05
0.012230987
0.010201154
-2.3375512e-07
0.0026396082
3.908244e-06
0.0070013676
1.4742481e-05
0.010097348
2.7288398e-05
0.012142042
3.6563782e-05
0.013342905
3.9816729e-05
0.013867724
3.638186e-05
0.013836147
2.7104686e-05
0.013308609
1.3981303e-05
0.01224411
0.010215136
2.2774826e-06
0.0026373307
1.0310115e-05
0.006993335
2.2684005e-05
0.010084975
3.4658876e-05
0.012130067
4.2312225e-05
0.013335251
4.3700739e-05
0.013866335
3.8625551e-05
0.013841222
2.8144642e-05
0.01331909
1.4292543e-05
0.012257962
0.010229428
4.3220789e-06
0.0026330086
1.539613e-05
0.0069822609
2.8922049e-05
0.010071449
4.0375071e-05
0.012118614
4.6679289e-05
0.013328947
4.6547562e-05
0.013866467
4.0165059e-05
0.013847605
2.8767634e-05
0.013330487
1.4422208e-05
0.012272307
0.010243851
5.8172415e-06
0.0026271913
1.912376e-05
0.0069689544
3.3492967e-05
0.010057079
4.4498968e-05
0.012107608
4.9714438e-05
0.013323732
4.8381231e-05
0.0138678
4.1002394e-05
0.013854984
2.8964456e-05
0.013342525
1.4361452e-05
0.01228691
0.010258212
6.7752799e-06
0.0026204161
2.1561241e-05
0.0069541684
3.6484891e-05
0.010042156
4.710518e-05
0.012096987
5.1462988e-05
0.013319374
4.9217589e-05
0.013870045
4.1133069e-05
0.013863068
2.8722702e-05
0.013354936
1.4100768e-05
0.012301532
0.010272313
7.268639e-06
0.0026131474
2.2855608e-05
0.0069385815
3.8038634e-05
0.010026973
4.8297348e-05
0.012086729
5.1986581e-05
0.013315685
4.9083424e-05
0.013872949
4.0561398e-05
0.01387159
2.8037194e-05
0.01336746
1.3635237e-05
0.012315934
0.010285948
7.3940113e-06
0.0026057534
2.3197153e-05
0.0069227784
3.8338375e-05
0.010011832
4.8215141e-05
0.012076852
5.1376689e-05
0.013312523
4.8030942e-05
0.013876294
3.9312998e-05
0.013880308
2.6918805e-05
0.013379854
1.2968741e-05
0.012329884
0.010298917
7.2473645e-06
0.0025985061
2.2788024e-05
0.0069072377
3.7595066e-05
0.0099970246
4.7031179e-05
0.012067416
4.9758963e-05
0.013309795
4.6144975e-05
0.013879908
3.7441989e-05
0.013889011
2.5399919e-05
0.013391896
1.2116825e-05
0.012343168
0.010311034
6.9115131e-06
0.0025915946
2.1819661e-05
0.0068923296
3.602763e-05
0.0099828166
4.4940294e-05
0.012058503
4.7288635e-05
0.013307447
4.3541893e-05
0.013883655
3.5031379e-05
0.013897522
2.3534977e-05
0.013403393
1.1106874e-05
0.012355596
0.01032214
6.4525084e-06
0.002585142
2.0459996e-05
0.0068783221
3.3846655e-05
0.0099694299
4.2145602e-05
0.012050204
4.4140119e-05
0.013305453
4.0362089e-05
0.013887433
3.218763e-05
0.013905696
2.1396619e-05
0.013414184
9.9758042e-06
0.012367017
0.010332116
5.920622e-06
0.0025792214
1.8848554e-05
0.0068653941
3.1242941e-05
0.0099570355
3.8845151e-05
0.012042602
4.0494431e-05
0.013303803
3.6759031e-05
0.013891169
2.9031679e-05
0.013913424
1.9069108e-05
0.013424146
8.7667098e-06
0.012377319
0.010340883
5.3529218e-06
0.0025738685
1.7096517e-05
0.0068536505
2.8380948e-05
0.0099457511
3.522115e-05
0.012035762
3.6526905e-05
0.013302497
3.2887204e-05
0.013894808
2.5688258e-05
0.013920622
1.664009e-05
0.013433194
7.5239967e-06
0.012386435
0.010348407
4.7761408e-06
0.0025690923
1.5289596e-05
0.0068431371
2.5396671e-05
0.009935644
3.1433166e-05
0.012029725
3.2397839e-05
0.013301533
2.8892007e-05
0.013898314
2.2276577e-05
0.013927238
1.419347e-05
0.013441277
6.2898671e-06
0.012394339
0.010354697
4.2091071e-06
0.0025648832
1.3491818e-05
0.0068338543
2.2398261e-05
0.0099267376
2.7614606e-05
0.012024509
2.8246031e-05
0.013300901
2.4901982e-05
0.013901658
1.8902742e-05
0.013933237
1.1803415e-05
0.013448377
5.1008536e-06
0.012401041
0.010359798
3.664732e-06
0.0025612185
1.1749516e-05
0.0068257696
1.946856e-05
0.0099190185
2.3872248e-05
0.012020105
2.4185792e-05
0.013300588
2.1024431e-05
0.013904819
1.5655262e-05
0.013938606
9.5308664e-06
0.013454501
3.9861681e-06
0.012406586
0.010363784
3.1515276e-06
0.002558067
1.0094936e-05
0.0068188261
1.6668456e-05
0.009912445
2.0287731e-05
0.012016486
2.0306498e-05
0.013300569
1.7343768e-05
0.013907782
1.2603059e-05
0.013943347
7.4220274e-06
0.013459682
2.9670262e-06
0.012411041
0.010366751
2.6747508e-06
0.0025553922
8.5493342e-06
0.0068129516
1.4040461e-05
0.0099069539
1.6920209e-05
0.012013606
1.6673988e-05
0.013300815
1.3921981e-05
0.013910534
9.7955869e-06
0.013947473
5.5085151e-06
0.013463969
2.056826e-06
0.012414492
0.010368808
2.2372866e-06
0.0025531549
7.1255657e-06
0.0068080633
1.1612219e-05
0.0099024672
1.3809657e-05
0.012011409
1.3333222e-05
0.013301292
1.080071e-05
0.013913067
7.264514e-06
0.01395101
3.8088088e-06
0.013467425
1.2622153e-06
0.012417039
0.01037007
1.8402935e-06
0.0025513146
5.8301669e-06
0.0068040734
9.3996467e-06
0.0098988977
1.0980304e-05
0.012009828
1.031152e-05
0.01330196
8.004211e-06
0.013915374
5.0264619e-06
0.013953987
2.3305693e-06
0.013470121
5.845137e-07
0.012418785
0.010370654
1.4836964e-06
0.0025498309
4.6649853e-06
0.0068008921
7.4095793e-06
0.0098961531
8.4437065e-06
0.012008794
7.6216554e-06
0.013302782
5.5422258e-06
0.013917453
3.0855831e-06
0.013956444
1.0736786e-06
0.013472133
3.1531267e-08
0.012419827
0.010370686
1.166483e-06
0.0025486645
3.6282037e-06
0.0067984304
5.6414596e-06
0.0098941399
6.2007226e-06
0.012008235
5.2637851e-06
0.013303719
3.4120172e-06
0.013919305
1.4368177e-06
0.013958419
3.9445303e-08
0.01347353
-4.1164662e-07
0.012420278
0.010370274
8.8700564e-07
0.0025477775
2.7154403e-06
0.006796602
4.0894132e-06
0.0098927659
4.2444671e-06
0.01200808
3.2293405e-06
0.013304735
1.6037217e-06
0.013920931
7.4668755e-08
0.013959948
-7.9575067e-07
0.013474401
-7.7014795e-07
0.012420253
0.010369504
6.4323536e-07
0.0025471342
1.9207278e-06
0.0067953245
2.7442309e-06
0.0098919424
2.5634001e-06
0.012008261
1.5054481e-06
0.013305793
1.0695758e-07
0.013922329
-1.0292698e-06
0.013961084
-1.4648814e-06
0.013474836
-1.0486517e-06
0.012419836
0.010368455
4.3291692e-07
0.0025467013
1.237103e-06
0.0067945203
1.5946391e-06
0.0098915849
1.1436086e-06
0.012008712
7.8575502e-08
0.013306858
-1.108632e-06
0.013923517
-1.9121132e-06
0.013961888
-1.9814561e-06
0.013474905
-1.2535318e-06
0.012419109
0.010367202
2.5371093e-07
0.0025464476
6.5726563e-07
0.0067941167
6.2917611e-07
0.009891613
-2.9198411e-08
0.01200937
-1.0810188e-06
0.013307909
-2.0808461e-06
0.013924516
-2.5941928e-06
0.013962401
-2.3607049e-06
0.013474672
-1.3929937e-06
0.012418141
0.010365809
1.033667e-07
0.0025463442
1.7419652e-07
0.0067940459
-1.6563109e-07
0.0098919528
-9.8160421e-07
0.012010186
-2.008513e-06
0.013308936
-2.8333669e-06
0.013925341
-3.0965457e-06
0.013962664
-2.6189584e-06
0.013474194
-1.4758165e-06
0.012416998
0.010364333
-2.059133e-08
0.0025463648
-2.2132976e-07
0.0067942467
-8.0968621e-07
0.0098925412
-1.7425313e-06
0.012011119
-2.7270611e-06
0.013309921
-3.3897247e-06
0.013926004
-3.4408763e-06
0.013962716
-2.7727564e-06
0.013473526
-1.5107504e-06
0.012415736
0.010362822
-1.2117507e-07
0.002546486
-5.4011177e-07
0.0067946656
-1.3216783e-06
0.0098933227
-2.3309953e-06
0.012012128
-3.2594178e-06
0.013310849
-3.7737887e-06
0.013926518
-3.648814e-06
0.013962591
-2.8382488e-06
0.013472716
-1.506148e-06
0.012414404
0.010361316
-2.0116892e-07
0.0025466872
-7.9087338e-07
0.0067952553
-1.7152561e-06
0.0098942471
-2.7662131e-06
0.012013179
-3.6283378e-06
0.013311711
-4.009017e-06
0.013926899
-3.7412405e-06
0.013962323
-2.8307267e-06
0.013471805
-1.469739e-06
0.012413043
0.010359847
-2.6283896e-07
0.00254695
-9.8105472e-07
0.0067959735
-2.0039753e-06
0.00989527
-3.0671025e-06
0.012014242
-3.8560056e-06
0.0133125
-4.1179556e-06
0.013927161
-3.7378936e-06
0.013961943
-2.7643692e-06
0.013470832
-1.4086042e-06
0.012411687
0.010358438
-3.0832299e-07
0.0025472583
-1.1178619e-06
0.0067967831
-2.2009845e-06
0.0098963532
-3.2518841e-06
0.012015293
-3.9635403e-06
0.013313212
-4.1217377e-06
0.013927319
-3.6569406e-06
0.013961478
-2.6519764e-06
0.013469827
-1.3289385e-06
0.012410364
0.010357109
-3.3965412e-07
0.002547598
-1.2081939e-06
0.0067976516
-2.3188506e-06
0.0098974638
-3.3378298e-06
0.012016312
-3.9707283e-06
0.013313845
-4.03985e-06
0.013927388
-3.5148243e-06
0.013960953
-2.5048946e-06
0.013468817
-1.2362014e-06
0.012409095
0.010355873
-3.5873739e-07
0.0025479567
-1.2585418e-06
0.0067985514
-2.3693491e-06
0.0098985746
-3.340968e-06
0.012017284
-3.8956503e-06
0.0133144
-3.8897692e-06
0.013927382
-3.3259559e-06
0.013960389
-2.332812e-06
0.013467824
-1.1348483e-06
0.012407897
0.010354738
-3.6735852e-07
0.0025483241
-1.2749689e-06
0.006799459
-2.3634028e-06
0.0098996631
-3.2759991e-06
0.012018196
-3.7546413e-06
0.013314878
-3.6869716e-06
0.013927315
-3.102811e-06
0.013959805
-2.1438996e-06
0.013466865
-1.0285829e-06
0.012406782
0.010353709
-3.6717115e-07
0.0025486913
-1.2630726e-06
0.0068003549
-2.3110253e-06
0.009900711
-3.1562435e-06
0.012019041
-3.5622674e-06
0.013315284
-3.4450016e-06
0.013927197
-2.8560626e-06
0.013959216
-1.9449697e-06
0.013465954
-9.2036656e-07
0.012405757
0.010352789
-3.5970826e-07
0.002549051
-1.2280094e-06
0.0068012232
-2.221364e-06
0.0099017044
-2.9937281e-06
0.012019814
-3.3315021e-06
0.013315622
-3.1757273e-06
0.013927042
-2.5949085e-06
0.013958635
-1.7417964e-06
0.013465101
-8.1270213e-07
0.012404828
0.010351976
-3.4637398e-07
0.0025493973
-1.1744892e-06
0.0068020513
-2.1027122e-06
0.0099026326
-2.7992516e-06
0.01202051
-3.0738414e-06
0.013315897
-2.8895243e-06
0.013926857
-2.3272737e-06
0.013958073
-1.5392838e-06
0.013464313
-7.0764759e-07
0.012403997
0.010351269
-3.2845419e-07
0.0025497258
-1.1067997e-06
0.0068028297
-1.9625595e-06
0.0099034883
-2.5824551e-06
0.01202113
-2.7994335e-06
0.013316114
-2.595438e-06
0.013926653
-2.0599928e-06
0.013957538
-1.3416389e-06
0.013463594
-6.0701272e-07
0.012403262
0.010350662
-3.0710125e-07
0.0025500329
-1.0287746e-06
0.0068035513
-1.8075426e-06
0.0099042671
-2.3517825e-06
0.012021674
-2.5170181e-06
0.013316279
-2.3011171e-06
0.013926437
-1.7987267e-06
0.013957035
-1.1522537e-06
0.013462948
-5.1217541e-07
0.012402622
0.010350149
-2.8334029e-07
0.0025503162
-9.4379943e-07
0.0068042118
-1.6434548e-06
0.0099049667
-2.1144765e-06
0.012022145
-2.2339438e-06
0.013316398
-2.0128262e-06
0.013926216
-1.5479567e-06
0.01395657
-9.7370182e-07
0.013462373
-4.2415511e-07
0.012402072
0.010349725
-2.5806112e-07
0.0025505743
-8.547917e-07
0.0068048085
-1.4752133e-06
0.0099055871
-1.8765513e-06
0.012022547
-1.9561266e-06
0.013316478
-1.7353998e-06
0.013925995
-1.3109362e-06
0.013956146
-8.0768157e-07
0.01346187
-3.4351498e-07
0.012401608
0.010349382
-2.320213e-07
0.0025508063
-7.6421206e-07
0.0068053407
-1.3068852e-06
0.0099061298
-1.6428444e-06
0.012022883
-1.6881362e-06
0.013316523
-1.4723508e-06
0.01392578
-1.0897989e-06
0.013955763
-6.5509565e-07
0.013461435
-2.7040821e-07
0.012401223
0.010349111
-2.0586624e-07
0.0025510122
-6.7411706e-07
0.0068058089
-1.1417987e-06
0.0099065975
-1.4171982e-06
0.012023158
-1.4334524e-06
0.013316539
-1.2261882e-06
0.013925572
-8.8589816e-07
0.013955423
-5.1637146e-07
0.013461066
-2.048338e-07
0.012400912
0.010348907
-1.8012596e-07
0.0025511923
-5.8618432e-07
0.006806215
-9.826118e-07
0.0099069939
-1.2025858e-06
0.012023378
-1.1946449e-06
0.013316531
-9.98617e-07
0.013925376
-6.999956e-07
0.013955124
-3.9157886e-07
0.013460757
-1.465741e-07
0.012400667
0.01034876
-1.5524608e-07
0.0025513475
-5.0179347e-07
0.0068065615
-8.3146899e-07
0.0099073236
-1.001348e-06
0.012023548
-9.736692e-07
0.013316504
-7.9087318e-07
0.013925194
-5.3259384e-07
0.013954866
-2.8073218e-07
0.013460506
-9.5528245e-08
0.012400482
0.010348664
-1.3157889e-07
0.0025514791
-4.2203181e-07
0.006806852
-6.9002198e-07
0.0099075916
-8.1522257e-07
0.012023673
-7.7188946e-07
0.01331646
-6.037163e-07
0.013925025
-3.8388747e-07
0.013954646
-1.8368774e-07
0.013460305
-5.1490535e-08
0.012400349
0.010348613
-1.0940214e-07
0.0025515885
-3.4773556e-07
0.0068070903
-5.5949884e-07
0.0099078033
-6.4542599e-07
0.012023759
-5.9015798e-07
0.013316405
-4.3748949e-07
0.013924873
-2.5378685e-07
0.013954462
-1.001177e-07
0.013460152
-1.3784549e-08
0.012400263
0.010348599
-8.8910613e-08
0.0025516774
-2.7948605e-07
0.0068072809
-4.4069814e-07
0.0099079645
-4.9264098e-07
0.012023811
-4.2876912e-07
0.013316341
-2.9202501e-07
0.013924736
-1.4173592e-07
0.013954312
-2.9035862e-08
0.013460039
1.7920511e-08
0.012400216
0.010348617
-7.0234906e-08
0.0025517477
-2.1764257e-07
0.0068074283
-3.340383e-07
0.0099080809
-3.5706061e-07
0.012023834
-2.8750239e-07
0.013316272
-1.6663057e-07
0.013924615
-4.6544534e-08
0.013954192
3.0287253e-08
0.013459962
4.3177721e-08
0.012400203
0.01034866
-5.3431912e-08
0.0025518011
-1.6233258e-07
0.0068075372
-2.3953371e-07
0.0099081581
-2.3835498e-07
0.012023833
-1.6552127e-07
0.013316199
-5.9895817e-08
0.01392451
3.3088766e-08
0.013954099
7.8117755e-08
0.013459917
6.2542013e-08
0.012400219
0.010348723
-3.8512772e-08
0.0025518396
-1.1351331e-07
0.0068076122
-1.5690543e-07
0.0099082015
-1.3579962e-07
0.012023812
-6.150484e-08
0.013316124
2.9672844e-08
0.013924418
9.7822615e-08
0.013954031
1.1536898e-07
0.0134599
7.6927671e-08
0.012400257
0.0103488
-2.5436279e-08
0.002551865
-7.0984722e-08
0.0068076578
-8.5600485e-08
0.0099082162
-4.8275695e-08
0.012023774
2.5970229e-08
0.01331605
1.0292106e-07
0.013924341
1.4876705e-07
0.013953985
1.4351492e-07
0.013459905
8.7193366e-08
0.012400313
0.010348887
-1.413735e-08
0.0025518792
-3.4448763e-08
0.0068076781
-2.4864817e-08
0.0099082066
2.5245e-08
0.012023724
9.7608434e-08
0.013315978
1.6082295e-07
0.013924278
1.8750319e-07
0.013953958
1.637251e-07
0.013459929
9.3899996e-08
0.012400383
0.010348981
-4.5099136e-09
0.0025518837
-3.495531e-09
0.0068076771
2.5922878e-08
0.0099081772
8.5326767e-08
0.012023665
1.5429908e-07
0.013315909
2.0499325e-07
0.013924228
2.1546511e-07
0.013953948
1.7702727e-07
0.013459967
9.7559436e-08
0.012400463
0.010349078
3.533629e-09
0.0025518802
2.2126243e-08
0.0068076585
6.713789e-08
0.0099081322
1.3273724e-07
0.012023599
1.975079e-07
0.013315844
2.3691075e-07
0.013924188
2.3391231e-07
0.013953951
1.8428518e-07
0.013460017
9.8558053e-08
0.012400549
0.010349177
1.0067454e-08
0.0025518701
4.265568e-08
0.0068076259
9.9441102e-08
0.0099080754
1.6872187e-07
0.01202353
2.2868414e-07
0.013315784
2.5801098e-07
0.013924159
2.4405244e-07
0.013953965
1.8631594e-07
0.013460075
9.7286364e-08
0.012400638
0.010349274
1.520614e-08
0.0025518549
5.8551567e-08
0.0068075825
1.2375067e-07
0.0099080102
1.9455989e-07
0.012023459
2.4930025e-07
0.013315729
2.6974652e-07
0.013924138
2.4710556e-07
0.013953988
1.8395938e-07
0.013460138
9.4130035e-08
0.012400727
0.010349368
1.9094113e-08
0.0025518358
7.0321784e-08
0.0068075313
1.4101127e-07
0.0099079395
2.1155428e-07
0.012023389
2.6084609e-07
0.01331568
2.7357835e-07
0.013924126
2.4430464e-07
0.013954017
1.7806716e-07
0.013460204
8.9516894e-08
0.012400816
0.010349458
2.1879198e-08
0.0025518139
7.8481847e-08
0.0068074747
1.5217305e-07
0.0099078658
2.2100917e-07
0.01202332
2.6480152e-07
0.013315636
2.7095221e-07
0.013924119
2.3686189e-07
0.013954051
1.6948674e-07
0.013460271
8.3840073e-08
0.012400902
0.010349542
2.3711423e-08
0.0025517902
8.3542906e-08
0.0068074149
1.5816421e-07
0.0099077912
2.2418088e-07
0.012023254
2.6257652e-07
0.013315598
2.6322775e-07
0.013924119
2.2591224e-07
0.013954088
1.5900469e-07
0.013460338
7.7498809e-08
0.012400983
0.010349619
2.4729043e-08
0.0025517655
8.5983546e-08
0.0068073536
1.5984448e-07
0.0099077173
2.2221662e-07
0.012023192
2.5543379e-07
0.013315565
2.5159823e-07
0.013924123
2.1242978e-07
0.013954128
1.472735e-07
0.013460403
7.0788088e-08
0.01240106
0.01034969
2.506139e-08
0.0025517404
8.6242048e-08
0.0068072925
1.5799175e-07
0.0099076456
2.1613458e-07
0.012023133
2.4446742e-07
0.013315536
2.3706935e-07
0.01392413
1.9720223e-07
0.013954167
1.3479943e-07
0.013460466
6.3929927e-08
0.012401131
0.010349754
2.4825751e-08
0.0025517156
8.471105e-08
0.0068072326
1.5328992e-07
0.009907577
2.068106e-07
0.01202308
2.3059645e-07
0.013315513
2.204592e-07
0.01392414
1.8084434e-07
0.013954207
1.2195631e-07
0.013460525
5.7095406e-08
0.012401195
0.010349811
2.4123327e-08
0.0025516915
8.1729851e-08
0.006807175
1.4632078e-07
0.0099075124
1.9497559e-07
0.012023031
2.1456229e-07
0.013315493
2.0239708e-07
0.013924152
1.6380176e-07
0.013954246
1.0898409e-07
0.01346058
5.0339176e-08
0.012401254
0.010349861
2.3051768e-08
0.0025516684
7.7611604e-08
0.0068071204
1.3761537e-07
0.0099074524
1.8128766e-07
0.012022988
1.9703528e-07
0.013315477
1.8345899e-07
0.013924166
1.4648825e-07
0.013954283
9.6132164e-08
0.01346063
4.3788071e-08
0.012401306
0.010349905
2.1691795e-08
0.0025516467
7.2623168e-08
0.0068070695
1.2762073e-07
0.0099073974
1.6629877e-07
0.012022949
1.7856061e-07
0.013315465
1.6409513e-07
0.01392418
1.2921151e-07
0.013954317
8.3551078e-08
0.013460676
3.7459705e-08
0.012401353
0.010349943
2.012564e-08
0.0025516266
6.702224e-08
0.0068070226
1.1677071e-07
0.0099073477
1.5054213e-07
0.012022915
1.5968199e-07
0.013315456
1.4477738e-07
0.013924195
1.1232393e-07
0.01395435
7.1464665e-08
0.013460716
3.148972e-08
0.012401393
0.010349974
1.8418351e-08
0.0025516082
6.1025671e-08
0.00680698
1.054263e-07
0.0099073033
1.3446437e-07
0.012022886
1.4084398e-07
0.01331545
1.2588101e-07
0.01392421
9.6088437e-08
0.01395438
6.0020471e-08
0.013460752
2.5890902e-08
0.012401427
0.01035
1.6636236e-08
0.0025515916
5.4839118e-08
0.0068069418
9.3932702e-08
0.0099072642
1.1848709e-07
0.012022862
1.2247388e-07
0.013315446
1.0777541e-07
0.013924225
8.0788152e-08
0.013954407
4.9399442e-08
0.013460784
2.0782199e-08
0.012401455
0.010350021
1.4828588e-08
0.0025515767
4.8628031e-08
0.006806908
8.2561889e-08
0.0099072303
1.029386e-07
0.012022841
1.0488981e-07
0.013315444
9.0722794e-08
0.013924239
6.6598562e-08
0.013954431
3.969255e-08
0.013460811
1.6167601e-08
0.012401479
0.010350037
1.3042313e-08
0.0025515637
4.2536929e-08
0.0068068785
7.1550257e-08
0.0099072013
8.8094436e-08
0.012022825
8.8355608e-08
0.013315443
7.4931002e-08
0.013924253
5.3659441e-08
0.013954452
3.0981564e-08
0.013460833
1.2107021e-08
0.012401498
0.010350049
1.1307294e-08
0.0025515524
3.6666525e-08
0.0068068531
6.1055072e-08
0.0099071769
7.4130786e-08
0.012022812
7.3012273e-08
0.013315445
6.0484567e-08
0.013924265
4.1992628e-08
0.013954471
2.3239267e-08
0.013460852
8.5344209e-09
0.012401512
0.010350058
9.6531984e-09
0.0025515427
3.1103043e-08
0.0068068317
5.1205306e-08
0.0099071568
6.1178942e-08
0.012022802
5.8966167e-08
0.013315447
4.7440154e-08
0.013924277
3.1610966e-08
0.013954486
1.6457296e-08
0.013460867
5.4714072e-09
0.012401523
0.010350063
8.0905032e-09
0.0025515346
2.5885625e-08
0.0068068139
4.205694e-08
0.0099071406
4.9284748e-08
0.012022794
4.6224522e-08
0.01331545
3.5761478e-08
0.013924287
2.2443866e-08
0.0139545
1.0548533e-08
0.013460879
2.8212954e-09
0.012401531
0.010350066
6.6425078e-09
0.002551528
2.1063722e-08
0.0068067995
3.369883e-08
0.0099071279
3.8595184e-08
0.012022789
3.5001882e-08
0.013315453
2.5715043e-08
0.013924296
1.4770924e-08
0.013954511
5.7622848e-09
0.013460888
7.7530497e-10
0.012401536
0.010350067
3.004336e-09
9.5083924e-09
1.5103021e-08
1.7089565e-08
1.5234162e-08
1.0872421e-08
5.9581874e-09
2.0809332e-09
1.509809e-10
)
;

boundaryField
{
    water_inlet
    {
        type            calculated;
        value           nonuniform List<scalar> 10(-0.0021750989 -0.0058428937 -0.0086267772 -0.010688211 -0.012161792 -0.013159549 -0.01377456 -0.014084001 -0.014151716 -0.014030398);
    }
    water_outlet
    {
        type            calculated;
        value           nonuniform List<scalar> 10(0.002551525 0.006806793 0.0099071224 0.012022787 0.013315455 0.013924301 0.013954516 0.013460892 0.012401538 0.010350067);
    }
    water_wedge1
    {
        type            wedge;
        value           nonuniform List<scalar> 
1000
(
-1.1296142e-13
-1.4267753e-13
-1.1216231e-13
-1.0631577e-13
-9.9355327e-14
-9.3389215e-14
-8.8694734e-14
-8.49548e-14
-8.1973342e-14
-7.9486836e-14
-7.7281506e-14
-7.5239678e-14
-7.3264692e-14
-7.1279085e-14
-6.9185738e-14
-6.6855399e-14
-6.4135084e-14
-6.081586e-14
-5.6665101e-14
-5.1409638e-14
-4.479646e-14
-3.6661002e-14
-2.7080795e-14
-1.6558147e-14
-5.8584945e-15
4.0675266e-15
1.2376592e-14
1.8669824e-14
2.2897126e-14
2.52946e-14
2.6219172e-14
2.6010069e-14
2.5024365e-14
2.3509873e-14
2.1684754e-14
1.9702372e-14
1.7630994e-14
1.5588819e-14
1.361299e-14
1.1735302e-14
9.996127e-15
8.3877489e-15
6.929634e-15
5.6133891e-15
4.4356701e-15
3.408513e-15
2.5022847e-15
1.7093417e-15
1.0431509e-15
4.8080858e-16
9.2595082e-18
-3.6555061e-16
-6.6858968e-16
-9.1130371e-16
-1.0905064e-15
-1.2086912e-15
-1.284084e-15
-1.3272666e-15
-1.3291076e-15
-1.3073023e-15
-1.2699992e-15
-1.2053936e-15
-1.1294864e-15
-1.0440901e-15
-9.5350707e-16
-8.6767381e-16
-7.6929686e-16
-6.6997011e-16
-5.8241043e-16
-5.0193199e-16
-4.1889819e-16
-3.4127213e-16
-2.7293753e-16
-2.0455921e-16
-1.5393771e-16
-1.081846e-16
-6.5342876e-17
-2.8539607e-17
5.8634081e-18
3.0944172e-17
4.5161078e-17
5.5609749e-17
7.2633209e-17
8.0590712e-17
8.7179795e-17
8.730992e-17
8.4986638e-17
8.4338087e-17
7.7302548e-17
7.2841909e-17
6.7577002e-17
6.8619843e-17
6.2958438e-17
5.2141744e-17
4.3086362e-17
3.2263987e-17
3.309213e-17
3.1952157e-17
1.9525683e-17
5.8230886e-18
-6.8081231e-13
-1.0335445e-12
-8.3928963e-13
-7.9752891e-13
-7.4940051e-13
-7.0313799e-13
-6.6536268e-13
-6.3522739e-13
-6.1093688e-13
-5.9052921e-13
-5.7244867e-13
-5.5560442e-13
-5.3912512e-13
-5.2219895e-13
-5.0397505e-13
-4.834334e-13
-4.5934404e-13
-4.3018794e-13
-3.9436786e-13
-3.5055803e-13
-2.9814359e-13
-2.376582e-13
-1.7103447e-13
-1.0154722e-13
-3.3356375e-14
2.8959626e-14
8.1493948e-14
1.2214825e-13
1.5062838e-13
1.6796047e-13
1.7588032e-13
1.763464e-13
1.712661e-13
1.6227885e-13
1.5074261e-13
1.3769891e-13
1.2393142e-13
1.1004279e-13
9.6438946e-14
8.3435011e-14
7.1221641e-14
5.9900841e-14
4.9547663e-14
4.0193888e-14
3.1830671e-14
2.4421598e-14
1.7935737e-14
1.2313805e-14
7.5071247e-15
3.4684406e-15
1.177503e-16
-2.6191662e-15
-4.8038388e-15
-6.5012153e-15
-7.7700296e-15
-8.6564581e-15
-9.2133845e-15
-9.4905127e-15
-9.5305187e-15
-9.3762703e-15
-9.0635543e-15
-8.6185046e-15
-8.0784307e-15
-7.4771734e-15
-6.8321991e-15
-6.1637092e-15
-5.4839505e-15
-4.8074324e-15
-4.1565712e-15
-3.543913e-15
-2.9640862e-15
-2.4178167e-15
-1.9241218e-15
-1.4793243e-15
-1.080486e-15
-7.3827217e-16
-4.3369768e-16
-1.7043315e-16
4.6084254e-17
2.2044512e-16
3.5437469e-16
4.6414799e-16
5.4321929e-16
5.9502357e-16
6.3038594e-16
6.4045151e-16
6.3788647e-16
6.2499714e-16
5.9633116e-16
5.6072365e-16
5.2254106e-16
4.8310323e-16
4.3525876e-16
3.8705459e-16
3.4047284e-16
2.9748164e-16
2.5537863e-16
2.1302356e-16
1.7540032e-16
9.9764019e-17
3.1339119e-12
4.8023028e-12
3.9072362e-12
3.711388e-12
3.4900559e-12
3.2689353e-12
3.0860187e-12
2.9387798e-12
2.8176153e-12
2.7124761e-12
2.6152706e-12
2.5197183e-12
2.4205085e-12
2.312356e-12
2.1894903e-12
2.0461077e-12
1.8774868e-12
1.6810981e-12
1.4574338e-12
1.2105701e-12
9.4811691e-13
6.8018615e-13
4.1759805e-13
1.7017233e-13
-5.3342597e-14
-2.4557873e-13
-4.0218502e-13
-5.2203064e-13
-6.0632998e-13
-6.580201e-13
-6.8125263e-13
-6.8085211e-13
-6.6176788e-13
-6.28696e-13
-5.8581371e-13
-5.3666029e-13
-4.8413493e-13
-4.3050068e-13
-3.7748408e-13
-3.2635542e-13