/*--------------------------------*- C++ -*----------------------------------*\
| =========                 |                                                 |
| \\      /  F ield         | OpenFOAM: The Open Source CFD Toolbox           |
|  \\    /   O peration     | Version:  2506                                  |
|   \\  /    A nd           | Website:  www.openfoam.com                      |
|    \\/     M anipulation  |                                                 |
\*---------------------------------------------------------------------------*/
FoamFile
{
    version     2.0;
    format      ascii;
    arch        "LSB;label=32;scalar=64";
    class       volScalarField;
    location    "7000/water";
    object      alphat;
}
// * * * * * * * * * * * * * * * * * * * * * * * * * * * * * * * * * * * * * //

dimensions      [1 -1 -1 0 0 0 0];

internalField   nonuniform List<scalar> 
1000
(
0.038690245
0.038689577
0.038688046
0.038679676
0.038634252
0.038395956
0.037190881
0.031863289
0.019099264
0.016301307
0.036437656
0.036436968
0.036430539
0.036397696
0.036243742
0.035561449
0.032798674
0.02447636
0.014644257
0.017654592
0.034756095
0.034752688
0.034735392
0.034658264
0.034338316
0.033096044
0.028914329
0.020078532
0.014287393
0.017671293
0.033455039
0.033447371
0.03341324
0.033276589
0.032760728
0.030940104
0.025769938
0.018272064
0.01595201
0.017301527
0.032418332
0.032405139
0.032350677
0.03215052
0.031437408
0.029070316
0.023556038
0.018635739
0.01886147
0.016925707
0.031571667
0.031552637
0.031479594
0.03122615
0.030328066
0.027485118
0.02255488
0.020803526
0.022278832
0.016666248
0.030866455
0.030843488
0.030761493
0.030477927
0.029402023
0.026292091
0.023061764
0.024243874
0.02554139
0.01652521
0.030270851
0.030249446
0.030178153
0.029894469
0.028644254
0.025787345
0.025138398
0.028280471
0.028304975
0.01646321
0.029764734
0.02975554
0.029725672
0.029468637
0.028107072
0.026357081
0.028508262
0.032334436
0.030519183
0.016442687
0.029337065
0.029357537
0.029409795
0.029196798
0.02798111
0.028237382
0.032681238
0.036080664
0.032267607
0.016440708
0.028984757
0.029060656
0.02924141
0.029099768
0.02858375
0.031375239
0.037164825
0.039413733
0.033659242
0.016446407
0.028712554
0.028878731
0.029233268
0.029270651
0.030215608
0.035478752
0.041608784
0.042341624
0.034787776
0.016455611
0.028533647
0.028833118
0.029403515
0.029913205
0.033002933
0.04016142
0.045827987
0.044910455
0.035723338
0.016467069
0.028470735
0.028950984
0.029795731
0.031303901
0.036852147
0.045075327
0.049751371
0.047172153
0.036515311
0.01648052
0.028557118
0.029264052
0.030516086
0.03367584
0.041511957
0.04997697
0.053365625
0.049173931
0.037197766
0.016495907
0.028837268
0.029812335
0.031757482
0.037114081
0.046676345
0.054726066
0.056681772
0.050955502
0.037793727
0.016513133
0.029366633
0.030660602
0.033764541
0.041531221
0.052071164
0.059252975
0.059719657
0.052547858
0.038312958
0.016531936
0.030212325
0.031928174
0.036741868
0.046714723
0.057495425
0.063527372
0.062500787
0.053971587
0.038771763
0.016552025
0.031460496
0.033808192
0.040769258
0.052403397
0.062820571
0.067538896
0.065043907
0.055249984
0.039180807
0.016573205
0.033237375
0.036537793
0.045775569
0.058353817
0.067969941
0.071287044
0.067367575
0.056402466
0.039547861
0.01659531
0.035735353
0.040316745
0.051571132
0.064374831
0.072897521
0.074772598
0.06949221
0.057443797
0.039878873
0.016618163
0.039206309
0.04522515
0.057909385
0.070330234
0.07757126
0.07800548
0.071434674
0.058385857
0.040178171
0.016641573
0.043888326
0.051190095
0.06454507
0.076123134
0.081973029
0.080996653
0.07320861
0.059237959
0.040448872
0.016665341
0.04989205
0.058008953
0.071267111
0.081682188
0.086093986
0.083754592
0.074824621
0.060007052
0.040693107
0.016689267
0.057119733
0.06540376
0.077905165
0.086956978
0.089927385
0.086284771
0.076290088
0.060697883
0.040912149
0.016713144
0.065267417
0.073076261
0.084332457
0.091909848
0.093464793
0.088589191
0.077609222
0.061313181
0.04110652
0.016736748
0.073906269
0.080754173
0.090454232
0.096507512
0.096695862
0.090666583
0.078783392
0.061853924
0.041276106
0.016759841
0.082592771
0.088207636
0.096194079
0.100721
0.099609376
0.092513347
0.079811815
0.062319764
0.041420326
0.01678216
0.090954255
0.095254791
0.10149098
0.10452691
0.10219521
0.09412514
0.080692608
0.06270961
0.041538362
0.016803425
0.098726867
0.10176256
0.1062994
0.10790923
0.10444667
0.095498832
0.081424131
0.063022392
0.041629462
0.01682335
0.10575433
0.10764461
0.11059019
0.11086098
0.10636259
0.096634411
0.082006376
0.063257876
0.041693272
0.01684166
0.11196679
0.11285653
0.11435104
0.11338498
0.10794861
0.097536403
0.082442124
0.063417383
0.041730129
0.016858121
0.11735541
0.11738878
0.11758561
0.11549374
0.10921755
0.098214537
0.082737608
0.063504236
0.041741237
0.016872555
0.12195044
0.1212586
0.12031155
0.11720837
0.11018879
0.098683585
0.082902585
0.063523855
0.041728702
0.01688486
0.12580505
0.12450214
0.12255762
0.11855685
0.11088699
0.098962539
0.082949878
0.063483517
0.041695408
0.016895013
0.12898438
0.12716758
0.12436061
0.11957208
0.11134052
0.099073414
0.082894569
0.063391873
0.0416448
0.01690307
0.13155834
0.12930974
0.12576233
0.12028987
0.1115798
0.099039927
0.082753047
0.063258364
0.041580617
0.016909147
0.13359722
0.13098606
0.12680705
0.12074722
0.11163585
0.098886274
0.082542086
0.063092634
0.041506639
0.016913415
0.13516893
0.13225371
0.12753941
0.12098088
0.11153912
0.098636118
0.082278051
0.062904025
0.041426466
0.016916075
0.1363374
0.13316777
0.12800294
0.12102629
0.11131861
0.098311801
0.081976275
0.062701176
0.041343352
0.016917347
0.13716178
0.13377997
0.12823898
0.12091678
0.11100119
0.097933791
0.081650617
0.062491747
0.0412601
0.016917457
0.13769596
0.13413803
0.12828593
0.12068306
0.11061123
0.097520325
0.081313189
0.062282257
0.041179002
0.016916623
0.13798851
0.13428533
0.12817887
0.12035289
0.11017034
0.097087231
0.080974224
0.062078023
0.041101839
0.01691505
0.13808272
0.13426075
0.12794936
0.11995096
0.10969734
0.096647894
0.080642078
0.061883183
0.041029896
0.01691292
0.13801687
0.13409881
0.12762538
0.11949888
0.10920825
0.096213295
0.08032322
0.061700514
0.04096294
0.016910383
0.13782446
0.1338298
0.12723145
0.11901524
0.10871641
0.095792109
0.08002226
0.061531083
0.040902111
0.016907566
0.1375346
0.13348006
0.12678875
0.11851578
0.10823262
0.095390785
0.079741738
0.061376971
0.040847876
0.016904593
0.13717237
0.13307224
0.12631537
0.11801352
0.10776524
0.095013464
0.079484767
0.061238973
0.040800398
0.016901569
0.13675913
0.13262562
0.12582641
0.11751885
0.10732015
0.09466441
0.079252779
0.061117294
0.040759585
0.016898578
0.13631288
0.13215627
0.1253341
0.11703967
0.10690304
0.094345996
0.079046285
0.061011678
0.040725159
0.016895682
0.13584844
0.13167727
0.12484847
0.11658328
0.10651755
0.094059405
0.078865092
0.060921507
0.040696712
0.01689293
0.13537806
0.13119976
0.12437822
0.11615493
0.10616597
0.093804896
0.078708461
0.060845905
0.040673762
0.016890355
0.13491211
0.13073303
0.1239301
0.11575832
0.10584946
0.093582002
0.078575253
0.060783831
0.040655788
0.01688798
0.13445905
0.13028448
0.1235092
0.11539587
0.10556826
0.093389679
0.078464036
0.060734137
0.04064226
0.016885819
0.13402559
0.12985984
0.12311915
0.11506886
0.10532185
0.093226435
0.078373167
0.060695619
0.040632644
0.016883879
0.13361691
0.12946336
0.12276234
0.11477766
0.10510907
0.09309042
0.078300854
0.060667041
0.040626418
0.01688216
0.13323674
0.12909797
0.12244006
0.11452178
0.10492825
0.092979527
0.078245219
0.060647169
0.040623078
0.016880657
0.1328876
0.12876545
0.12215263
0.11430012
0.10477735
0.092891477
0.078204356
0.060634802
0.040622149
0.016879361
0.13257094
0.12846659
0.12189963
0.11411104
0.10465404
0.092823923
0.078176393
0.060628801
0.040623196
0.01687826
0.13228728
0.12820139
0.12168001
0.11395254
0.10455586
0.092774528
0.078159545
0.060628115
0.040625829
0.016877341
0.13203644
0.12796918
0.12149228
0.11382238
0.10448033
0.09274103
0.078152145
0.060631792
0.040629709
0.016876589
0.13181763
0.12776879
0.12133457
0.11371817
0.10442493
0.092721275
0.078152655
0.06063898
0.040634535
0.016875989
0.13162962
0.12759866
0.12120479
0.11363744
0.10438725
0.09271323
0.078159663
0.060648913
0.040640047
0.016875527
0.13147079
0.12745692
0.12110065
0.11357771
0.1043649
0.092714985
0.078171876
0.060660903
0.040646011
0.016875188
0.13133922
0.12734144
0.12101976
0.11353647
0.10435563
0.092724757
0.078188112
0.060674336
0.040652223
0.016874957
0.1312328
0.12724995
0.12095965
0.11351127
0.10435728
0.0927409
0.078207309
0.060688671
0.040658509
0.016874819
0.13114925
0.12718007
0.12091785
0.11349975
0.10436786
0.092761925
0.078228527
0.060703444
0.040664722
0.01687476
0.13108621
0.12712937
0.12089194
0.1134997
0.10438552
0.092786512
0.078250959
0.060718267
0.040670746
0.016874767
0.13104132
0.12709548
0.12087961
0.11350905
0.10440862
0.092813512
0.078273925
0.060732829
0.040676494
0.016874827
0.13101228
0.12707611
0.12087869
0.11352593
0.10443574
0.092841948
0.078296868
0.060746884
0.040681901
0.01687493
0.13099688
0.12706907
0.12088718
0.11354867
0.1044656
0.092870997
0.078319336
0.060760247
0.040686924
0.016875067
0.13099303
0.12707235
0.12090326
0.11357578
0.10449713
0.09289997
0.078340965
0.060772765
0.040691487
0.016875228
0.1309988
0.12708407
0.12092527
0.11360594
0.1045294
0.092928297
0.078361457
0.060784294
0.04069557
0.016875406
0.13101238
0.12710252
0.12095171
0.11363801
0.10456162
0.092955503
0.078380556
0.060794764
0.040699193
0.016875593
0.13103214
0.12712614
0.12098127
0.11367097
0.10459311
0.092981185
0.078398095
0.060804166
0.040702371
0.016875784
0.13105658
0.12715353
0.12101278
0.11370398
0.10462332
0.093005053
0.078414009
0.060812497
0.040705123
0.016875975
0.13108436
0.12718344
0.1210452
0.11373628
0.10465181
0.093026954
0.078428256
0.060819776
0.04070747
0.016876163
0.13111431
0.12721478
0.12107767
0.11376731
0.10467831
0.093046782
0.078440837
0.060826044
0.040709439
0.016876343
0.13114539
0.12724662
0.12110948
0.11379668
0.10470263
0.093064503
0.078451795
0.060831356
0.040711058
0.016876513
0.13117676
0.12727821
0.12114013
0.11382408
0.10472468
0.093080139
0.078461205
0.060835782
0.040712362
0.016876672
0.13120773
0.12730898
0.12116921
0.11384933
0.10474443
0.09309376
0.078469165
0.060839399
0.040713384
0.016876819
0.13123778
0.12733847
0.12119644
0.11387232
0.10476191
0.093105471
0.078475789
0.060842288
0.040714158
0.016876953
0.13126649
0.12736635
0.12122163
0.11389303
0.1047772
0.093115392
0.078481195
0.06084453
0.040714717
0.016877075
0.13129357
0.12739238
0.12124465
0.11391144
0.10479038
0.093123652
0.078485498
0.060846199
0.040715088
0.016877184
0.13131877
0.12741636
0.12126544
0.11392761
0.10480157
0.093130379
0.078488807
0.060847362
0.040715297
0.01687728
0.13134192
0.12743818
0.12128395
0.11394159
0.10481089
0.0931357
0.078491222
0.060848079
0.040715365
0.016877364
0.13136289
0.12745776
0.12130021
0.11395347
0.10481846
0.093139743
0.078492843
0.060848408
0.040715312
0.016877435
0.13138162
0.12747508
0.12131426
0.11396336
0.10482442
0.093142643
0.078493771
0.060848406
0.040715159
0.016877494
0.1313981
0.12749015
0.12132619
0.11397141
0.10482894
0.09314454
0.078494109
0.060848132
0.040714926
0.016877543
0.13141238
0.12750307
0.12133613
0.11397779
0.10483218
0.093145586
0.078493963
0.060847647
0.040714637
0.016877581
0.13142455
0.12751396
0.12134425
0.11398267
0.10483434
0.093145927
0.078493437
0.060847006
0.04071431
0.01687761
0.13143475
0.12752297
0.12135072
0.11398625
0.10483557
0.0931457
0.078492623
0.06084626
0.040713965
0.016877632
0.13144314
0.12753026
0.12135572
0.11398871
0.10483603
0.093145024
0.078491598
0.060845447
0.040713611
0.016877648
0.13144988
0.127536
0.12135941
0.11399019
0.10483586
0.093143991
0.07849042
0.060844595
0.040713258
0.016877658
0.1314551
0.12754034
0.12136195
0.11399083
0.10483515
0.093142675
0.078489128
0.060843721
0.040712908
0.016877664
0.13145895
0.12754341
0.12136346
0.11399073
0.10483399
0.093141131
0.078487755
0.060842836
0.040712564
0.016877665
0.13146156
0.12754534
0.12136405
0.11399001
0.10483246
0.093139411
0.078486327
0.060841951
0.040712226
0.016877662
0.13146304
0.12754625
0.12136385
0.11398876
0.10483064
0.093137569
0.078484874
0.060841078
0.0407119
0.016877655
0.13146355
0.12754629
0.121363
0.1139871
0.10482861
0.093135663
0.078483431
0.060840235
0.040711588
0.016877645
0.13146326
0.12754562
0.12136163
0.11398514
0.10482647
0.093133752
0.07848203
0.060839436
0.040711298
0.016877633
)
;

boundaryField
{
    water_inlet
    {
        type            calculated;
        value           uniform 0.041850807;
    }
    water_outlet
    {
        type            calculated;
        value           nonuniform List<scalar> 10(0.13146326 0.12754562 0.12136163 0.11398514 0.10482647 0.093133752 0.07848203 0.060839436 0.040711298 0.016877633);
    }
    water_wedge1
    {
        type            wedge;
    }
    water_wedge2
    {
        type            wedge;
    }
    water_to_rock
    {
        type            compressible::alphatWallFunction;
        value           nonuniform List<scalar> 
100
(
0.0020384971
0.0022594581
0.0022621707
0.0022020353
0.00214074
0.0020983174
0.0020752199
0.0020650578
0.0020616929
0.0020613683
0.0020623023
0.0020638114
0.0020656902
0.0020678955
0.0020704176
0.0020732404
0.0020763213
0.0020796126
0.0020830821
0.0020867024
0.0020904446
0.0020942773
0.0020981683
0.0021020844
0.0021059914
0.0021098531
0.0021136302
0.0021172801
0.0021207569
0.0021240139
0.0021270066
0.0021296967
0.0021320555
0.0021340663
0.0021357257
0.0021370421
0.0021380351
0.0021387321
0.0021391663
0.0021393739
0.0021393918
0.0021392555
0.0021389985
0.0021386507
0.0021382364
0.0021377764
0.0021372909
0.0021367969
0.0021363082
0.002135835
0.0021353853
0.0021349645
0.0021345765
0.0021342236
0.0021339067
0.002133626
0.0021333804
0.0021331686
0.0021329885
0.0021328382
0.0021327152
0.0021326172
0.0021325417
0.0021324864
0.0021324486
0.002132426
0.0021324163
0.0021324172
0.002132427
0.0021324439
0.0021324662
0.0021324927
0.0021325217
0.0021325524
0.0021325837
0.0021326149
0.0021326455
0.0021326749
0.0021327028
0.0021327289
0.002132753
0.0021327752
0.0021327952
0.002132813
0.0021328288
0.0021328424
0.002132854
0.0021328636
0.0021328714
0.0021328776
0.0021328824
0.002132886
0.0021328886
0.0021328902
0.002132891
0.002132891
0.0021328903
0.0021328891
0.0021328874
0.0021328856
)
;
    }
}


// ************************************************************************* //
