/*--------------------------------*- C++ -*----------------------------------*\
| =========                 |                                                 |
| \\      /  F ield         | OpenFOAM: The Open Source CFD Toolbox           |
|  \\    /   O peration     | Version:  2506                                  |
|   \\  /    A nd           | Website:  www.openfoam.com                      |
|    \\/     M anipulation  |                                                 |
\*---------------------------------------------------------------------------*/
FoamFile
{
    version     2.0;
    format      ascii;
    arch        "LSB;label=32;scalar=64";
    class       volScalarField;
    location    "7000/water";
    object      nut;
}
// * * * * * * * * * * * * * * * * * * * * * * * * * * * * * * * * * * * * * //

dimensions      [0 2 -1 0 0 0 0];

internalField   nonuniform List<scalar> 
1000
(
3.8760013e-05
3.8759344e-05
3.875781e-05
3.8749425e-05
3.8703919e-05
3.8465194e-05
3.7257946e-05
3.1920746e-05
1.9133704e-05
1.6330702e-05
3.6503362e-05
3.6502673e-05
3.6496233e-05
3.646333e-05
3.6309099e-05
3.5625575e-05
3.2857818e-05
2.4520496e-05
1.4670664e-05
1.7686427e-05
3.4818769e-05
3.4815355e-05
3.4798028e-05
3.4720761e-05
3.4400236e-05
3.3155724e-05
2.8966469e-05
2.0114738e-05
1.4313157e-05
1.7703159e-05
3.3515366e-05
3.3507685e-05
3.3473492e-05
3.3336595e-05
3.2819804e-05
3.0995896e-05
2.5816407e-05
1.8305013e-05
1.5980776e-05
1.7332726e-05
3.2476791e-05
3.2463573e-05
3.2409013e-05
3.2208495e-05
3.1494098e-05
2.9122737e-05
2.3598516e-05
1.8669344e-05
1.8895482e-05
1.6956228e-05
3.1628598e-05
3.1609534e-05
3.1536359e-05
3.1282459e-05
3.0382754e-05
2.753468e-05
2.2595552e-05
2.084104e-05
2.2319006e-05
1.6696301e-05
3.0922115e-05
3.0899106e-05
3.0816963e-05
3.0532886e-05
2.9455042e-05
2.6339502e-05
2.310335e-05
2.4287592e-05
2.5587447e-05
1.6555009e-05
3.0325437e-05
3.0303994e-05
3.0232571e-05
2.9948376e-05
2.8695907e-05
2.5833845e-05
2.5183728e-05
2.8331468e-05
2.8356016e-05
1.6492898e-05
2.9818407e-05
2.9809197e-05
2.9779275e-05
2.9521776e-05
2.8157756e-05
2.6404609e-05
2.855967e-05
3.2392743e-05
3.0574216e-05
1.6472338e-05
2.9389967e-05
2.9410476e-05
2.9462828e-05
2.9249447e-05
2.8031567e-05
2.8288301e-05
3.2740171e-05
3.6145726e-05
3.2325794e-05
1.6470355e-05
2.9037023e-05
2.911306e-05
2.9294139e-05
2.9152242e-05
2.8635293e-05
3.1431816e-05
3.7231842e-05
3.9484805e-05
3.3719938e-05
1.6476064e-05
2.876433e-05
2.8930807e-05
2.9285983e-05
2.9323433e-05
3.0270094e-05
3.5542729e-05
4.1683815e-05
4.2417976e-05
3.4850506e-05
1.6485285e-05
2.85851e-05
2.8885111e-05
2.9456537e-05
2.9967146e-05
3.3062445e-05
4.0233841e-05
4.5910626e-05
4.499144e-05
3.5787755e-05
1.6496763e-05
2.8522075e-05
2.900319e-05
2.984946e-05
3.1360349e-05
3.69186e-05
4.5156609e-05
4.9841085e-05
4.7257216e-05
3.6581157e-05
1.6510238e-05
2.8608614e-05
2.9316823e-05
3.0571114e-05
3.3736566e-05
4.1586813e-05
5.0067091e-05
5.3461857e-05
4.9262603e-05
3.7264843e-05
1.6525653e-05
2.8889269e-05
2.9866094e-05
3.1814748e-05
3.7181006e-05
4.6760514e-05
5.4824751e-05
5.6783983e-05
5.1047388e-05
3.7861878e-05
1.654291e-05
2.9419589e-05
3.071589e-05
3.3825427e-05
4.1606112e-05
5.2165061e-05
5.9359822e-05
5.9827346e-05
5.2642614e-05
3.8382045e-05
1.6561747e-05
3.0266805e-05
3.1985749e-05
3.6808123e-05
4.6798961e-05
5.7599103e-05
6.3641927e-05
6.2613492e-05
5.4068911e-05
3.8841678e-05
1.6581872e-05
3.1517227e-05
3.3869156e-05
4.0842775e-05
5.2497893e-05
6.2933852e-05
6.7660686e-05
6.5161197e-05
5.5349613e-05
3.925146e-05
1.6603091e-05
3.329731e-05
3.6603679e-05
4.5858114e-05
5.8459043e-05
6.8092507e-05
7.1415593e-05
6.7489055e-05
5.6504174e-05
3.9619175e-05
1.6625235e-05
3.5799792e-05
4.0389446e-05
5.1664127e-05
6.4490915e-05
7.3028973e-05
7.4907432e-05
6.9617522e-05
5.7547382e-05
3.9950785e-05
1.664813e-05
3.9277007e-05
4.5306702e-05
5.801381e-05
7.0457057e-05
7.771114e-05
7.8146143e-05
7.1563488e-05
5.8491141e-05
4.0250622e-05
1.6671581e-05
4.3967467e-05
5.1282404e-05
6.4661461e-05
7.6260403e-05
8.2120846e-05
8.114271e-05
7.3340623e-05
5.9344779e-05
4.0521811e-05
1.6695393e-05
4.9982017e-05
5.8113557e-05
7.1395623e-05
8.1829481e-05
8.6249235e-05
8.3905622e-05
7.4959548e-05
6.0115259e-05
4.0766486e-05
1.6719362e-05
5.7222734e-05
6.5521699e-05
7.8045647e-05
8.7113783e-05
9.0089546e-05
8.6440363e-05
7.6427658e-05
6.0807337e-05
4.0985924e-05
1.6743282e-05
6.538511e-05
7.3208036e-05
8.4484529e-05
9.2075584e-05
9.3633333e-05
8.8748939e-05
7.774917e-05
6.1423743e-05
4.1180645e-05
1.6766929e-05
7.403954e-05
8.0899792e-05
9.0617343e-05
9.6681539e-05
9.6870229e-05
9.0830077e-05
7.8925458e-05
6.1965462e-05
4.1350537e-05
1.6790063e-05
8.2741706e-05
8.8366696e-05
9.6367541e-05
0.00010090262
9.9788996e-05
9.2680171e-05
7.9955735e-05
6.2432142e-05
4.1495017e-05
1.6812423e-05
9.1118267e-05
9.5426558e-05
0.000101674
0.00010471539
0.00010237949
9.4294871e-05
8.0838117e-05
6.2822691e-05
4.1613266e-05
1.6833726e-05
9.8904896e-05
0.00010194607
0.00010649108
0.00010810382
0.00010463501
9.567104e-05
8.1570959e-05
6.3136037e-05
4.170453e-05
1.6853686e-05
0.00010594503
0.00010783872
0.00011078961
0.00011106089
0.00010655439
9.6808666e-05
8.2154254e-05
6.3371946e-05
4.1768456e-05
1.687203e-05
0.0001121687
0.00011306004
0.00011455724
0.00011358944
0.00010814327
9.7712285e-05
8.2590788e-05
6.353174e-05
4.1805378e-05
1.688852e-05
0.00011756703
0.00011760046
0.00011779765
0.000115702
0.0001094145
9.8391642e-05
8.2886805e-05
6.361875e-05
4.1816507e-05
1.690298e-05
0.00012217034
0.00012147726
0.0001205285
0.00011741972
0.00011038748
9.8861535e-05
8.3052079e-05
6.3638404e-05
4.1803949e-05
1.6915307e-05
0.00012603191
0.00012472665
0.00012277862
0.00011877064
0.00011108695
9.9140993e-05
8.3099457e-05
6.3597993e-05
4.1770596e-05
1.6925479e-05
0.00012921697
0.00012739689
0.00012458486
0.0001197877
0.0001115413
9.9252068e-05
8.3044049e-05
6.3506184e-05
4.1719896e-05
1.693355e-05
0.00013179557
0.00012954292
0.00012598911
0.00012050679
0.00011178101
9.921852e-05
8.2902271e-05
6.3372434e-05
4.1655597e-05
1.6939639e-05
0.00013383813
0.00013122226
0.00012703571
0.00012096496
0.00011183716
9.906459e-05
8.269093e-05
6.3206406e-05
4.1581486e-05
1.6943914e-05
0.00013541267
0.0001324922
0.00012776939
0.00012119904
0.00011174026
9.8813983e-05
8.2426418e-05
6.3017456e-05
4.1501168e-05
1.6946579e-05
0.00013658325
0.0001334079
0.00012823376
0.00012124453
0.00011151935
9.8489081e-05
8.2124098e-05
6.2814241e-05
4.1417905e-05
1.6947853e-05
0.00013740912
0.00013402121
0.00012847022
0.00012113482
0.00011120135
9.8110389e-05
8.1797853e-05
6.2604435e-05
4.1334502e-05
1.6947964e-05
0.00013794426
0.00013437992
0.00012851726
0.00012090068
0.00011081068
9.7696178e-05
8.1459817e-05
6.2394567e-05
4.1253258e-05
1.6947128e-05
0.00013823733
0.00013452748
0.00012841001
0.00012056991
0.00011036901
9.7262303e-05
8.1120241e-05
6.2189965e-05
4.1175955e-05
1.6945552e-05
0.00013833172
0.00013450286
0.00012818008
0.00012016726
0.00010989516
9.6822174e-05
8.0787495e-05
6.1994774e-05
4.1103883e-05
1.6943418e-05
0.00013826575
0.00013434063
0.00012785552
0.00011971437
0.00010940518
9.6386791e-05
8.0468063e-05
6.1811775e-05
4.1036807e-05
1.6940877e-05
0.00013807299
0.00013407113
0.00012746088
0.00011922986
0.00010891246
9.5964845e-05
8.016656e-05
6.1642038e-05
4.0975867e-05
1.6938055e-05
0.00013778261
0.00013372076
0.00012701738
0.0001187295
0.00010842779
9.5562798e-05
7.9885532e-05
6.1487649e-05
4.0921535e-05
1.6935076e-05
0.00013741973
0.00013331221
0.00012654315
0.00011822633
0.00010795956
9.5184797e-05
7.9628097e-05
6.1349402e-05
4.0873971e-05
1.6932047e-05
0.00013700574
0.00013286477
0.00012605331
0.00011773077
0.00010751368
9.4835113e-05
7.9395691e-05
6.1227504e-05
4.0833085e-05
1.692905e-05
0.00013655868
0.00013239458
0.00012556011
0.00011725072
0.00010709581
9.4516125e-05
7.9188825e-05
6.1121697e-05
4.0798596e-05
1.6926149e-05
0.0001360934
0.00013191472
0.0001250736
0.00011679351
0.00010670962
9.4229017e-05
7.9007305e-05
6.1031363e-05
4.0770098e-05
1.6923392e-05
0.00013562218
0.00013143635
0.00012460251
0.00011636438
0.00010635741
9.397405e-05
7.8850392e-05
6.0955625e-05
4.0747106e-05
1.6920813e-05
0.00013515539
0.00013096878
0.00012415358
0.00011596706
0.00010604033
9.3750753e-05
7.8716944e-05
6.0893439e-05
4.0729101e-05
1.6918433e-05
0.00013470151
0.00013051942
0.00012373192
0.00011560395
0.00010575862
9.3558084e-05
7.8605526e-05
6.0843656e-05
4.0715548e-05
1.6916268e-05
0.00013426728
0.00013009401
0.00012334117
0.00011527636
0.00010551177
9.3394545e-05
7.8514493e-05
6.0805068e-05
4.0705914e-05
1.6914325e-05
0.00013385785
0.00012969682
0.00012298372
0.00011498463
0.0001052986
9.3258285e-05
7.844205e-05
6.0776439e-05
4.0699677e-05
1.6912602e-05
0.000133477
0.00012933077
0.00012266084
0.00011472829
0.00010511746
9.3147192e-05
7.8386314e-05
6.0756531e-05
4.0696331e-05
1.6911097e-05
0.00013312723
0.00012899765
0.0001223729
0.00011450624
0.00010496628
9.3058983e-05
7.8345378e-05
6.0744142e-05
4.06954e-05
1.6909798e-05
0.00013280999
0.00012869825
0.00012211944
0.00011431681
0.00010484275
9.2991307e-05
7.8317364e-05
6.0738129e-05
4.0696449e-05
1.6908696e-05
0.00013252583
0.00012843257
0.00012189943
0.00011415802
0.0001047444
9.2941823e-05
7.8300486e-05
6.0737442e-05
4.0699088e-05
1.6907775e-05
0.00013227453
0.00012819994
0.00012171136
0.00011402763
0.00010466873
9.2908264e-05
7.8293072e-05
6.0741126e-05
4.0702974e-05
1.6907021e-05
0.00013205533
0.00012799919
0.00012155336
0.00011392323
0.00010461324
9.2888474e-05
7.8293583e-05
6.0748327e-05
4.070781e-05
1.690642e-05
0.00013186698
0.00012782875
0.00012142335
0.00011384236
0.00010457548
9.2880415e-05
7.8300604e-05
6.0758278e-05
4.0713331e-05
1.6905958e-05
0.00013170786
0.00012768675
0.00012131902
0.00011378252
0.0001045531
9.2882173e-05
7.8312839e-05
6.0770289e-05
4.0719305e-05
1.6905618e-05
0.00013157606
0.00012757107
0.00012123799
0.0001137412
0.00010454381
9.2891962e-05
7.8329105e-05
6.0783747e-05
4.0725529e-05
1.6905386e-05
0.00013146945
0.00012747941
0.00012117777
0.00011371596
0.00010454547
9.2908134e-05
7.8348336e-05
6.0798108e-05
4.0731826e-05
1.6905248e-05
0.00013138575
0.0001274094
0.00012113589
0.00011370442
0.00010455606
9.2929198e-05
7.8369592e-05
6.0812907e-05
4.073805e-05
1.6905189e-05
0.00013132259
0.00012735862
0.00012110994
0.00011370437
0.00010457375
9.2953829e-05
7.8392065e-05
6.0827757e-05
4.0744086e-05
1.6905196e-05
0.00013127762
0.00012732467
0.00012109758
0.00011371373
0.0001045969
9.2980878e-05
7.8415072e-05
6.0842345e-05
4.0749844e-05
1.6905257e-05
0.00013124853
0.00012730526
0.00012109666
0.00011373065
0.00010462406
9.3009365e-05
7.8438057e-05
6.0856426e-05
4.0755261e-05
1.690536e-05
0.0001312331
0.00012729821
0.00012110517
0.00011375343
0.00010465398
9.3038466e-05
7.8460565e-05
6.0869812e-05
4.0760292e-05
1.6905497e-05
0.00013122924
0.00012730149
0.00012112128
0.00011378059
0.00010468557
9.3067492e-05
7.8482233e-05
6.0882354e-05
4.0764864e-05
1.6905659e-05
0.00013123502
0.00012731324
0.00012114333
0.0001138108
0.00010471789
9.309587e-05
7.8502762e-05
6.0893903e-05
4.0768954e-05
1.6905836e-05
0.00013124863
0.00012733172
0.00012116982
0.00011384293
0.00010475017
9.3123124e-05
7.8521895e-05
6.0904392e-05
4.0772584e-05
1.6906024e-05
0.00013126842
0.00012735538
0.00012119943
0.00011387595
0.00010478172
9.3148853e-05
7.8539466e-05
6.0913811e-05
4.0775767e-05
1.6906215e-05
0.0001312929
0.00012738282
0.00012123099
0.00011390901
0.00010481198
9.3172764e-05
7.8555409e-05
6.0922157e-05
4.0778524e-05
1.6906407e-05
0.00013132074
0.00012741278
0.00012126347
0.00011394138
0.00010484052
9.3194704e-05
7.8569681e-05
6.0929449e-05
4.0780875e-05
1.6906594e-05
0.00013135074
0.00012744418
0.000121296
0.00011397246
0.00010486707
9.3214568e-05
7.8582285e-05
6.0935729e-05
4.0782848e-05
1.6906775e-05
0.00013138188
0.00012747608
0.00012132787
0.00011400188
0.00010489144
9.3232321e-05
7.8593263e-05
6.094105e-05
4.0784471e-05
1.6906945e-05
0.0001314133
0.00012750772
0.00012135857
0.00011402933
0.00010491352
9.3247985e-05
7.860269e-05
6.0945484e-05
4.0785776e-05
1.6907105e-05
0.00013144433
0.00012753855
0.00012138771
0.00011405463
0.00010493331
9.3261631e-05
7.8610665e-05
6.0949107e-05
4.07868e-05
1.6907252e-05
0.00013147443
0.00012756809
0.00012141499
0.00011407766
0.00010495082
9.3273363e-05
7.8617301e-05
6.0952002e-05
4.0787576e-05
1.6907387e-05
0.0001315032
0.00012759603
0.00012144022
0.0001140984
0.00010496614
9.3283302e-05
7.8622716e-05
6.0954248e-05
4.0788135e-05
1.6907508e-05
0.00013153032
0.0001276221
0.00012146329
0.00011411685
0.00010497934
9.3291577e-05
7.8627027e-05
6.095592e-05
4.0788508e-05
1.6907617e-05
0.00013155557
0.00012764613
0.00012148411
0.00011413305
0.00010499055
9.3298316e-05
7.8630341e-05
6.0957084e-05
4.0788717e-05
1.6907714e-05
0.00013157876
0.00012766799
0.00012150266
0.00011414705
0.00010499989
9.3303647e-05
7.8632761e-05
6.0957803e-05
4.0788785e-05
1.6907798e-05
0.00013159977
0.0001276876
0.00012151895
0.00011415895
0.00010500747
9.3307697e-05
7.8634385e-05
6.0958133e-05
4.0788732e-05
1.6907869e-05
0.00013161853
0.00012770495
0.00012153302
0.00011416886
0.00010501344
9.3310602e-05
7.8635315e-05
6.0958131e-05
4.0788578e-05
1.6907929e-05
0.00013163504
0.00012772005
0.00012154497
0.00011417693
0.00010501797
9.3312503e-05
7.8635653e-05
6.0957857e-05
4.0788345e-05
1.6907977e-05
0.00013164934
0.00012773299
0.00012155493
0.00011418332
0.00010502122
9.331355e-05
7.8635507e-05
6.095737e-05
4.0788055e-05
1.6908015e-05
0.00013166154
0.0001277439
0.00012156306
0.00011418821
0.00010502338
9.3313892e-05
7.8634979e-05
6.0956728e-05
4.0787728e-05
1.6908045e-05
0.00013167176
0.00012775292
0.00012156954
0.0001141918
0.00010502461
9.3313665e-05
7.8634164e-05
6.095598e-05
4.0787382e-05
1.6908067e-05
0.00013168017
0.00012776023
0.00012157455
0.00011419426
0.00010502508
9.3312987e-05
7.8633138e-05
6.0955166e-05
4.0787028e-05
1.6908083e-05
0.00013168691
0.00012776598
0.00012157826
0.00011419574
0.0001050249
9.3311953e-05
7.8631957e-05
6.0954313e-05
4.0786674e-05
1.6908093e-05
0.00013169215
0.00012777033
0.0001215808
0.00011419638
0.00010502419
9.3310634e-05
7.8630664e-05
6.0953437e-05
4.0786324e-05
1.6908098e-05
0.00013169601
0.0001277734
0.0001215823
0.00011419629
0.00010502303
9.3309087e-05
7.8629288e-05
6.0952551e-05
4.0785978e-05
1.6908099e-05
0.00013169861
0.00012777533
0.0001215829
0.00011419556
0.0001050215
9.3307364e-05
7.8627857e-05
6.0951664e-05
4.078564e-05
1.6908096e-05
0.0001317001
0.00012777625
0.0001215827
0.00011419431
0.00010501967
9.3305519e-05
7.8626401e-05
6.095079e-05
4.0785313e-05
1.6908089e-05
0.00013170061
0.00012777629
0.00012158185
0.00011419264
0.00010501764
9.330361e-05
7.8624956e-05
6.0949945e-05
4.0785001e-05
1.690808e-05
0.00013170032
0.00012777562
0.00012158047
0.00011419068
0.00010501549
9.3301695e-05
7.8623553e-05
6.0949144e-05
4.0784711e-05
1.6908068e-05
)
;

boundaryField
{
    water_inlet
    {
        type            calculated;
        value           uniform 4.1926275e-05;
    }
    water_outlet
    {
        type            calculated;
        value           nonuniform List<scalar> 10(0.00013170032 0.00012777562 0.00012158047 0.00011419068 0.00010501549 9.3301695e-05 7.8623553e-05 6.0949144e-05 4.0784711e-05 1.6908068e-05);
    }
    water_wedge1
    {
        type            wedge;
    }
    water_wedge2
    {
        type            wedge;
    }
    water_to_rock
    {
        type            nutkWallFunction;
        blending        stepwise;
        value           nonuniform List<scalar> 
100
(
1.7358471e-06
1.9240026e-06
1.9263124e-06
1.8751052e-06
1.8229102e-06
1.786786e-06
1.7671177e-06
1.7584643e-06
1.7555991e-06
1.7553226e-06
1.756118e-06
1.757403e-06
1.7590028e-06
1.7608807e-06
1.7630284e-06
1.7654322e-06
1.7680556e-06
1.7708583e-06
1.7738127e-06
1.7768955e-06
1.7800821e-06
1.7833457e-06
1.786659e-06
1.7899937e-06
1.7933207e-06
1.796609e-06
1.7998254e-06
1.8029333e-06
1.8058939e-06
1.8086674e-06
1.8112158e-06
1.8135065e-06
1.8155151e-06
1.8172274e-06
1.8186404e-06
1.8197614e-06
1.8206069e-06
1.8212005e-06
1.8215702e-06
1.821747e-06
1.8217622e-06
1.8216461e-06
1.8214273e-06
1.8211311e-06
1.8207784e-06
1.8203866e-06
1.8199732e-06
1.8195526e-06
1.8191364e-06
1.8187335e-06
1.8183505e-06
1.8179922e-06
1.8176618e-06
1.8173613e-06
1.8170915e-06
1.8168524e-06
1.8166433e-06
1.8164629e-06
1.8163096e-06
1.8161816e-06
1.8160768e-06
1.8159934e-06
1.8159291e-06
1.815882e-06
1.8158499e-06
1.8158306e-06
1.8158223e-06
1.8158231e-06
1.8158315e-06
1.8158458e-06
1.8158649e-06
1.8158874e-06
1.8159121e-06
1.8159382e-06
1.8159648e-06
1.8159915e-06
1.8160175e-06
1.8160425e-06
1.8160663e-06
1.8160885e-06
1.8161091e-06
1.8161279e-06
1.816145e-06
1.8161602e-06
1.8161736e-06
1.8161852e-06
1.816195e-06
1.8162032e-06
1.8162099e-06
1.8162152e-06
1.8162193e-06
1.8162223e-06
1.8162245e-06
1.8162259e-06
1.8162265e-06
1.8162265e-06
1.816226e-06
1.8162249e-06
1.8162235e-06
1.8162219e-06
)
;
    }
}


// ************************************************************************* //
