/*--------------------------------*- C++ -*----------------------------------*\
| =========                 |                                                 |
| \\      /  F ield         | OpenFOAM: The Open Source CFD Toolbox           |
|  \\    /   O peration     | Version:  2506                                  |
|   \\  /    A nd           | Website:  www.openfoam.com                      |
|    \\/     M anipulation  |                                                 |
\*---------------------------------------------------------------------------*/
FoamFile
{
    version     2.0;
    format      ascii;
    arch        "LSB;label=32;scalar=64";
    class       surfaceScalarField;
    location    "7000/water";
    object      phi;
}
// * * * * * * * * * * * * * * * * * * * * * * * * * * * * * * * * * * * * * //

dimensions      [1 0 -1 0 0 0 0];

oriented        oriented;

internalField   nonuniform List<scalar> 
1890
(
-4.1736248e-05
0.0022168351
-0.00015753622
0.0059586937
-0.00032930669
0.0087985477
-0.00054203244
0.010900937
-0.00078239505
0.012402155
-0.0010351826
0.013412336
-0.0012746193
0.014013996
-0.0014359745
0.014245356
-0.001284859
0.0140006
0.012745539
-3.1455825e-05
0.0022482909
-0.00011269724
0.0060399351
-0.0002321939
0.0089180443
-0.0003799943
0.011048737
-0.00054594268
0.012568103
-0.00071649919
0.013582893
-0.00086674535
0.014164242
-0.00093361982
0.01431223
-0.0007339453
0.013800926
0.012011594
-2.9138835e-05
0.0022774298
-0.00010672999
0.0061175262
-0.00022105551
0.0090323698
-0.00036160345
0.011189285
-0.00051700171
0.012723501
-0.00067116283
0.013737054
-0.0007939628
0.014287042
-0.00081139971
0.014329667
-0.0005673012
0.013556827
0.011444293
-2.7339931e-05
0.0023047697
-0.00010102596
0.0061912123
-0.00020924236
0.0091405862
-0.00034097897
0.011321022
-0.00048374673
0.012866269
-0.0006191152
0.013872422
-0.00071088302
0.01437881
-0.00067660207
0.014295386
-0.000420264
0.013300489
0.011024029
-2.5625207e-05
0.0023303949
-9.4386048e-05
0.0062599731
-0.0001950667
0.0092412669
-0.00031669828
0.011442653
-0.00044589451
0.012995465
-0.00056132342
0.013987851
-0.00061882735
0.014436314
-0.00053651312
0.014213072
-0.00029565544
0.013059632
0.010728373
-2.4159464e-05
0.0023545544
-8.8799391e-05
0.0063246131
-0.00018306025
0.0093355278
-0.00029574135
0.011555335
-0.00041210837
0.013111832
-0.0005066226
0.014082366
-0.00052703598
0.014456728
-0.00040878359
0.01409482
-0.0002004318
0.01285128
0.010527941
-2.296547e-05
0.0023775199
-8.4333429e-05
0.006385981
-0.00017335334
0.0094245477
-0.00027826853
0.01166025
-0.00038232688
0.013215891
-0.0004543789
0.014154418
-0.00043820564
0.014440554
-0.00030321644
0.013959831
-0.00013378822
0.012681852
0.010394153
-2.2023836e-05
0.0023995437
-8.0769763e-05
0.006444727
-0.00016540571
0.0095091837
-0.00026327195
0.011758116
-0.00035472689
0.013307346
-0.00040244381
0.014202135
-0.00035545927
0.01439357
-0.00022236943
0.013826741
-8.9855457e-05
0.012549338
0.010304298
-2.1260561e-05
0.0024208043
-7.7812575e-05
0.006501279
-0.00015855227
0.0095899234
-0.00024948519
0.011849049
-0.00032712211
0.013384983
-0.00034954545
0.014224558
-0.00028212817
0.014326153
-0.00016300081
0.013707613
-6.1424914e-05
0.012447762
0.010242873
-2.0607167e-05
0.0024414114
-7.5216703e-05
0.0065558885
-0.00015223242
0.0096669391
-0.00023577767
0.011932594
-0.00029784598
0.013447051
-0.00029644707
0.014223159
-0.00022023768
0.014249943
-0.0001198035
0.013607179
-4.2688118e-05
0.012370646
0.010200185
-2.0018309e-05
0.0024614298
-7.2804792e-05
0.006608675
-0.00014600148
0.0097401357
-0.00022120586
0.012007799
-0.00026613528
0.01349198
-0.00024532
0.014202344
-0.00016974857
0.014174372
-8.7951998e-05
0.013525383
-2.98063e-05
0.012312501
0.010170378
-1.9463559e-05
0.0024808933
-7.0441487e-05
0.0066596529
-0.00013947764
0.0098091719
-0.00020502223
0.012073343
-0.00023228182
0.01351924
-0.00019838663
0.014168449
-0.00012919958
0.014105185
-6.3920577e-05
0.013460104
-2.0487313e-05
0.012269067
0.010149891
-1.8918749e-05
0.0024998121
-6.8008129e-05
0.0067087423
-0.00013229879
0.0098734625
-0.00018675603
0.0121278
-0.00019748268
0.013529967
-0.00015698167
0.014127948
-9.6701844e-05
0.014044905
-4.5355996e-05
0.013408758
-1.3427242e-05
0.012237139
0.010136464
-1.8360386e-05
0.0025181724
-6.5381792e-05
0.0067557637
-0.00012410694
0.0099321877
-0.00016633466
0.012170028
-0.00016333323
0.013526965
-0.00012140684
0.014086021
-7.0529798e-05
0.013994028
-3.0718909e-05
0.013368947
-7.888731e-06
0.012214308
0.010128575
-1.7761422e-05
0.0025359339
-6.2419641e-05
0.0068004219
-0.00011457686
0.0099843449
-0.00014416237
0.012199614
-0.00013123948
0.013514042
-9.1272127e-05
0.014046054
-4.9294455e-05
0.01395205
-1.8984362e-05
0.013338637
-3.4312239e-06
0.012198755
0.010125144
-1.7087921e-05
0.0025530218
-5.8952493e-05
0.0068422865
-0.00010349019
0.010028883
-0.00012105219
0.012217176
-0.00010208244
0.013495073
-6.5897979e-05
0.014009869
-3.1930689e-05
0.013918083
-9.4495787e-06
0.013316156
2.8766337e-07
0.012189018
0.010125431
-1.6296462e-05
0.0025693182
-5.4793172e-05
0.0068807832
-9.0831938e-05
0.010064921
-9.7998162e-05
0.012224342
-7.620917e-05
0.013473284
-4.457113e-05
0.013978231
-1.7626309e-05
0.013891138
-1.5565848e-06
0.013300086
3.3720959e-06
0.012184089
0.010128804
-1.5331756e-05
0.00258465
-4.9761858e-05
0.0069152133
-7.6852305e-05
0.010092012
-7.589815e-05
0.012223388
-5.3588608e-05
0.013450974
-2.6634347e-05
0.013951277
-5.725313e-06
0.013870229
4.9979953e-06
0.013289363
5.8495454e-06
0.012183238
0.010134653
-1.4126737e-05
0.0025987767
-4.3732659e-05
0.0069448192
-6.2044187e-05
0.010110323
-5.5379735e-05
0.012216723
-3.3986376e-05
0.013429581
-1.1512436e-05
0.013928803
4.2370969e-06
0.013854479
1.0367914e-05
0.013283232
7.8669167e-06
0.012185739
0.01014252
-1.2609174e-05
0.0026113859
-3.6694865e-05
0.0069689049
-4.7031809e-05
0.01012066
-3.6776237e-05
0.012206468
-1.7081854e-05
0.013409886
1.3268449e-06
0.013910394
1.2525679e-05
0.01384328
1.4772874e-05
0.013280985
9.5151319e-06
0.012190997
0.010152035
-1.0718703e-05
0.0026221046
-2.880122e-05
0.0069869874
-3.2421148e-05
0.01012428
-2.0183031e-05
0.01219423
-2.4832339e-06
0.013392186
1.2169228e-05
0.013895742
1.9374013e-05
0.013836076
1.8387287e-05
0.013281971
1.0860026e-05
0.012198524
0.010162895
-8.4364034e-06
0.002630541
-2.0369819e-05
0.0069989208
-1.8685758e-05
0.010122596
-5.5195152e-06
0.012181063
1.0028946e-05
0.013376638
2.1194541e-05
0.013884576
2.5021012e-05
0.013832249
2.1342524e-05
0.01328565
1.1949627e-05
0.012207917
0.010174845
-5.8190848e-06
0.0026363601
-1.1825885e-05
0.0070049276
-6.1113915e-06
0.010116882
7.2757295e-06
0.012167676
2.0569374e-05
0.013363344
2.8683046e-05
0.013876463
2.9652676e-05
0.01383128
2.3736573e-05
0.013291566
1.2818185e-05
0.012218835
0.010187663
-3.0143446e-06
0.0026393744
-3.5963436e-06
0.0070055096
5.102265e-06
0.010108183
1.8190406e-05
0.012154588
2.9353985e-05
0.013352181
3.4839495e-05
0.013870977
3.3406409e-05
0.013832713
2.5640483e-05
0.013299332
1.3489887e-05
0.012230986
0.010201153
-2.3417055e-07
0.0026396086
3.9069143e-06
0.0070013686
1.4740157e-05
0.01009735
2.7285203e-05
0.012142043
3.6559941e-05
0.013342906
3.9812546e-05
0.013867725
3.6377778e-05
0.013836147
2.7101318e-05
0.013308608
1.3979353e-05
0.012244108
0.010215132
2.2771198e-06
0.0026373315
1.0309003e-05
0.0069933367
2.2682257e-05
0.010084977
3.4656709e-05
0.012130069
4.230985e-05
0.013335253
4.3698348e-05
0.013866336
3.8623372e-05
0.013841222
2.8142967e-05
0.013319089
1.429166e-05
0.012257959
0.010229424
4.3220052e-06
0.0026330095
1.5395873e-05
0.0069822628
2.8921838e-05
0.010071451
4.0375114e-05
0.012118615
4.6679695e-05
0.013328948
4.6548316e-05
0.013866468
4.0166057e-05
0.013847605
2.8768683e-05
0.013330486
1.4422981e-05
0.012272305
0.010243847
5.8175388e-06
0.002627192
1.9124602e-05
0.0069689558
3.3494589e-05
0.010057081
4.4501487e-05
0.012107608
4.97178e-05
0.013323732
4.8385205e-05
0.0138678
4.1006564e-05
0.013854983
2.896817e-05
0.013342525
1.4363776e-05
0.012286909
0.010258211
6.7758348e-06
0.0026204161
2.1562893e-05
0.0069541687
3.6487808e-05
0.010042156
4.7109337e-05
0.012096987
5.1468185e-05
0.013319373
4.9223452e-05
0.013870045
4.1139011e-05
0.013863068
2.8727845e-05
0.013354936
1.4103929e-05
0.012301533
0.010272315
7.269189e-06
0.0026131469
2.2857354e-05
0.0069385805
3.8041638e-05
0.010026971
4.8301454e-05
0.012086727
5.1991507e-05
0.013315683
4.9088801e-05
0.013872948
4.056669e-05
0.01387159
2.8041635e-05
0.013367461
1.3637861e-05
0.012315937
0.010285952
7.3943326e-06
0.0026057526
2.3198294e-05
0.0069227766
3.8340284e-05
0.010011829
4.8217591e-05
0.01207685
5.1379422e-05
0.013312521
4.8033717e-05
0.013876293
3.9315538e-05
0.013880308
2.6920765e-05
0.013379855
1.2969787e-05
0.012329888
0.010298922
7.2473581e-06
0.0025985052
2.2788171e-05
0.0069072358
3.759522e-05
0.0099970223
4.7031126e-05
0.012067414
4.9758561e-05
0.013309794
4.61442e-05
0.013879908
3.7440915e-05
0.013889011
2.5398736e-05
0.013391898
1.2115946e-05
0.012343171
0.010311038
6.9112282e-06
0.002591594
2.1818878e-05
0.0068923281
3.6026152e-05
0.0099828151
4.4937995e-05
0.012058502
4.7285538e-05
0.013307446
4.3538192e-05
0.013883655
3.5027449e-05
0.013897522
2.3531418e-05
0.013403394
1.1104581e-05
0.012355597
0.010322143
6.4521004e-06
0.0025851419
2.0458708e-05
0.0068783215
3.3844302e-05
0.0099694295
4.2142184e-05
0.012050204
4.4135817e-05
0.013305453
4.0357235e-05
0.013887434
3.2182736e-05
0.013905697
2.139242e-05
0.013414184
9.9732675e-06
0.012367017
0.010332116
5.920241e-06
0.0025792217
1.884726e-05
0.0068653945
3.1240612e-05
0.0099570362
3.8841911e-05
0.012042603
4.0490549e-05
0.013303804
3.6754867e-05
0.013891169
2.9027693e-05
0.013913424
1.9065876e-05
0.013424146
8.7648582e-06
0.012377318
0.010340881
5.3526762e-06
0.002573869
1.7095606e-05
0.0068536516
2.8379344e-05
0.0099457524
3.5219051e-05
0.012035763
3.6524586e-05
0.013302499
3.2884938e-05
0.013894809
2.568632e-05
0.013920622
1.6638733e-05
0.013433193
7.5233695e-06
0.012386433
0.010348404
4.7760564e-06
0.002569093
1.5289209e-05
0.0068431384
2.539604e-05
0.0099356456
3.1432493e-05
0.012029727
3.239733e-05
0.013301534
2.8891795e-05
0.013898314
2.2276708e-05
0.013927238
1.4193883e-05
0.013441276
6.2903179e-06
0.012394337
0.010354695
4.2091464e-06
0.0025648838
1.3491875e-05
0.0068338557
2.2398439e-05
0.009926739
2.7615056e-05
0.01202451
2.8246849e-05
0.013300902
2.4903157e-05
0.013901658
1.8904154e-05
0.013933237
1.180481e-05
0.013448376
5.1018134e-06
0.01240104
0.010359796
3.6648374e-06
0.002561219
1.1749829e-05
0.0068257707
1.9469184e-05
0.0099190197
2.3873255e-05
0.012020106
2.4187173e-05
0.013300588
2.1026085e-05
0.013904819
1.5656994e-05
0.013938606
9.5323922e-06
0.0134545
3.9871412e-06
0.012406585
0.010363783
3.1516342e-06
0.0025580673
1.0095291e-05
0.006818827
1.6669124e-05
0.0099124458
2.028871e-05
0.012016486
2.0307712e-05
0.013300569
1.7345093e-05
0.013907782
1.2604328e-05
0.013943346
7.4230361e-06
0.013459682
2.9675902e-06
0.01241104
0.010366751
2.6748261e-06
0.0025553925
8.5495944e-06
0.0068129523
1.4040923e-05
0.0099069545
1.692082e-05
0.012013607
1.6674661e-05
0.013300815
1.3922621e-05
0.013910534
9.7961051e-06
0.013947473
5.5088396e-06
0.013463969
2.0569562e-06
0.012414492
0.010368808
2.2373142e-06
0.0025531552
7.1256644e-06
0.0068080639
1.1612358e-05
0.0099024678
1.380977e-05
0.012011409
1.333324e-05
0.013301292
1.0800601e-05
0.013913067
7.2642807e-06
0.013951009
3.8084973e-06
0.013467425
1.2619513e-06
0.012417039
0.01037007
1.8402843e-06
0.0025513149
5.8301222e-06
0.0068040741
9.3995038e-06
0.0098988984
1.0979998e-05
0.012009829
1.0311024e-05
0.013301961
8.0035474e-06
0.013915374
5.0257038e-06
0.013953987
2.3298449e-06
0.01347012
5.8402674e-07
0.012418785
0.010370654
1.4836656e-06
0.0025498312
4.6648488e-06
0.0068008929
7.4092549e-06
0.009896154
8.443142e-06
0.012008795
7.6208522e-06
0.013302783
5.5412415e-06
0.013917454
3.0845275e-06
0.013956444
1.0727195e-06
0.013472132
3.0919931e-08
0.012419826
0.010370685
1.1664543e-06
0.0025486648
3.6280538e-06
0.0067984313
5.6411037e-06
0.009894141
6.2001201e-06
0.012008236
5.2629497e-06
0.01330372
3.4110098e-06
0.013919306
1.4357485e-06
0.013958419
3.848806e-08
0.01347353
-4.1225057e-07
0.012420277
0.010370273
8.8699765e-07
0.0025477778
2.7153519e-06
0.006796603
4.0891744e-06
0.0098927672
4.2440478e-06
0.012008081
3.2287512e-06
0.013304735
1.6030051e-06
0.013920931
7.3899988e-08
0.013959948
-7.9645081e-07
0.0134744
-7.7061621e-07
0.012420251
0.010369502
6.4326415e-07
0.0025471345
1.9207662e-06
0.0067953255
2.7442429e-06
0.0098919437
2.5633682e-06
0.012008262
1.5053757e-06
0.013305793
1.0684302e-07
0.01392233
-1.029403e-06
0.013961084
-1.4650059e-06
0.013474835
-1.0487308e-06
0.012419835
0.010368453
4.3298155e-07
0.0025467015
1.2372867e-06
0.0067945212
1.5949497e-06
0.009891586
1.1440407e-06
0.012008713
7.911795e-08
0.013306858
-1.108011e-06
0.013923517
-1.9114627e-06
0.013961888
-1.9808672e-06
0.013474905
-1.2531646e-06
0.012419107
0.0103672
2.5380541e-07
0.0025464477
6.575792e-07
0.0067941174
6.2975849e-07
0.0098916139
-2.8340944e-08
0.012009371
-1.0799139e-06
0.01330791
-2.0795589e-06
0.013924517
-2.5928483e-06
0.013962401
-2.359499e-06
0.013474672
-1.3922305e-06
0.01241814
0.010365808
1.0346722e-07
0.0025463443
1.7456788e-07
0.0067940463
-1.6491463e-07
0.0098919533
-9.8053313e-07
0.012010186
-2.007145e-06
0.013308937
-2.8318033e-06
0.013925341
-3.0949498e-06
0.013962664
-2.6175765e-06
0.013474194
-1.4749819e-06
0.012416997
0.010364333
-2.0503236e-08
0.0025463648
-2.2097973e-07
0.0067942467
-8.0900027e-07
0.0098925413
-1.7415281e-06
0.012011119
-2.7258228e-06
0.013309921
-3.3883699e-06
0.013926004
-3.4395667e-06
0.013962716
-2.7716917e-06
0.013473526
-1.5101421e-06
0.012415736
0.010362823
-1.2111867e-07
0.0025464859
-5.3986041e-07
0.0067946655
-1.3211906e-06
0.0098933227
-2.330321e-06
0.012012128
-3.2586568e-06
0.013310849
-3.7730527e-06
0.013926518
-3.6482134e-06
0.013962591
-2.8378746e-06
0.013472716
-1.5060057e-06
0.012414404
0.010361317
-2.0114875e-07
0.002546687
-7.9075335e-07
0.0067952551
-1.7150352e-06
0.0098942469
-2.7659614e-06
0.012013179
-3.6281526e-06
0.013311711
-4.0089762e-06
0.013926899
-3.7413863e-06
0.013962323
-2.8310218e-06
0.013471806
-1.4700252e-06
0.012413043
0.010359847
-2.6284451e-07
0.0025469499
-9.8103975e-07
0.0067959733
-2.0039621e-06
0.0098952699
-3.0671573e-06
0.012014242
-3.8561963e-06
0.0133125
-4.1183212e-06
0.013927161
-3.738418e-06
0.013961943
-2.764949e-06
0.013470832
-1.4090309e-06
0.012411687
0.010358438
-3.0833766e-07
0.0025472582
-1.1178889e-06
0.0067967828
-2.2010401e-06
0.009896353
-3.2520005e-06
0.012015293
-3.9637463e-06
0.013313212
-4.1220375e-06
0.013927319
-3.6573016e-06
0.013961478
-2.6523143e-06
0.013469827
-1.3291647e-06
0.012410364
0.010357109
-3.3966089e-07
0.0025475979
-1.2081941e-06
0.0067976514
-2.3188251e-06
0.0098974636
-3.337762e-06
0.012016312
-3.9706058e-06
0.013313845
-4.0396667e-06
0.013927388
-3.5145775e-06
0.013960953
-2.5046068e-06
0.013468817
-1.2359817e-06
0.012409095
0.010355873
-3.5873048e-07
0.0025479566
-1.2584831e-06
0.0067985511
-2.369174e-06
0.0098985743
-3.3406184e-06
0.012017283
-3.8950901e-06
0.013314399
-3.8890008e-06
0.013927382
-3.3250336e-06
0.013960389
-2.3318767e-06
0.013467824
-1.1341978e-06
0.012407898
0.010354738
-3.6734775e-07
0.002548324
-1.274876e-06
0.0067994586
-2.363137e-06
0.0098996626
-3.2754841e-06
0.012018196
-3.753843e-06
0.013314878
-3.6859083e-06
0.013927314
-3.1015807e-06
0.013959805
-2.1427109e-06
0.013466865
-1.0277848e-06
0.012406783
0.010353711
-3.6717433e-07
0.0025486911
-1.2630146e-06
0.0068003545
-2.3108215e-06
0.0099007104
-3.1558308e-06
0.012019041
-3.5616283e-06
0.013315284
-3.4441641e-06
0.013927197
-2.8551186e-06
0.013959216
-1.9440875e-06
0.013465954
-9.1979011e-07
0.012405758
0.010352791
-3.5974344e-07
0.0025490509
-1.2280635e-06
0.0068012228
-2.2213932e-06
0.0099017037
-2.9937047e-06
0.012019813
-3.331422e-06
0.013315621
-3.175604e-06
0.013927041
-2.5947694e-06
0.013958635
-1.7416802e-06
0.013465101
-8.1262604e-07
0.012404829
0.010351978
-3.4644953e-07
0.0025493973
-1.1747015e-06
0.006802051
-2.1030746e-06
0.0099026321
-2.7997677e-06
0.01202051
-3.0745074e-06
0.013315896
-2.8903092e-06
0.013926857
-2.3281138e-06
0.013958073
-1.5400551e-06
0.013464313
-7.0813714e-07
0.012403997
0.01035127
-3.2855942e-07
0.0025497259
-1.1071476e-06
0.0068028296
-1.9632099e-06
0.0099034881
-2.5834237e-06
0.01202113
-2.8006884e-06
0.013316113
-2.596901e-06
0.013926653
-2.0615148e-06
0.013957538
-1.3429782e-06
0.013463594
-6.0782856e-07
0.012403262
0.010350662
-3.0721665e-07
0.0025500331
-1.0291873e-06
0.0068035516
-1.808329e-06
0.0099042673
-2.3529376e-06
0.012021675
-2.5184741e-06
0.013316279
-2.3027533e-06
0.013926437
-1.8003586e-06
0.013957035
-1.1536258e-06
0.013462948
-5.1298283e-07
0.012402622
0.010350149
-2.8343992e-07
0.0025503165
-9.4417753e-07
0.0068042123
-1.644167e-06
0.0099049673
-2.1154773e-06
0.012022146
-2.2351302e-06
0.013316398
-2.0140675e-06
0.013926216
-1.5490994e-06
0.01395657
-9.7457262e-07
0.013462373
-4.2461401e-07
0.012402072
0.010349725
-2.5812838e-07
0.0025505747
-8.5506119e-07
0.0068048093
-1.475695e-06
0.0099055879
-1.8771606e-06
0.012022547
-1.9567442e-06
0.013316478
-1.7359166e-06
0.013925996
-1.3112726e-06
0.013956146
-8.0780671e-07
0.01346187
-3.434978e-07
0.012401607
0.010349381
-2.3205752e-07
0.0025508067
-7.6436001e-07
0.0068053416
-1.3071137e-06
0.0099061307
-1.6430481e-06
0.012022883
-1.6882073e-06
0.013316523
-1.4722229e-06
0.01392578
-1.0894702e-06
0.013955763
-6.5465478e-07
0.013461435
-2.7006065e-07
0.012401223
0.010349111
-2.0588322e-07
0.0025510126
-6.7418573e-07
0.0068058099
-1.1418711e-06
0.0099065983
-1.417182e-06
0.012023159
-1.4332711e-06
0.013316539
-1.2258131e-06
0.013925572
-8.853673e-07
0.013955422
-5.1580996e-07
0.013461065
-2.0443219e-07
0.012400911
0.010348907
-1.80147e-07
0.0025511927
-5.8625876e-07
0.006806216
-9.8271324e-07
0.0099069948
-1.2026615e-06
0.012023379
-1.1946533e-06
0.013316531
-9.9854351e-07
0.013925376
-6.9985898e-07
0.013955124
-3.9143332e-07
0.013460757
-1.4647486e-07
0.012400666
0.01034876
-1.5528574e-07
0.002551348
-5.0194284e-07
0.0068065626
-8.3175088e-07
0.0099073246
-1.0017582e-06
0.012023549
-9.7418982e-07
0.013316504
-7.9147168e-07
0.013925193
-5.3322559e-07
0.013954865
-2.8131299e-07
0.013460505
-9.5896253e-08
0.012400481
0.010348664
-1.3163975e-07
0.0025514797
-4.2227953e-07
0.0068068533
-6.9053457e-07
0.0099075929
-8.1603242e-07
0.012023674
-7.7297992e-07
0.013316461
-6.0502096e-07
0.013925025
-3.8527795e-07
0.013954646
-1.8494696e-07
0.013460305
-5.2287784e-08
0.012400348
0.010348612
-1.0947042e-07
0.0025515891
-3.4804162e-07
0.0068070918
-5.6015761e-07
0.009907805
-6.4648121e-07
0.01202376
-5.9157677e-07
0.013316406
-4.3917129e-07
0.013924873
-2.5555031e-07
0.013954462
-1.0168117e-07
0.013460151
-1.4772098e-08
0.012400261
0.010348597
-8.8964741e-08
0.0025516781
-2.7976968e-07
0.0068072827
-4.4133004e-07
0.0099079665
-4.9365036e-07
0.012023813
-4.301062e-07
0.013316342
-2.9357557e-07
0.013924736
-1.4331967e-07
0.013954312
-3.0405419e-08
0.013460038
1.7075614e-08
0.012400214
0.010348614
-7.0252576e-08
0.0025517484
-2.1781535e-07
0.0068074302
-3.3445684e-07
0.0099080832
-3.5773145e-07
0.012023836
-2.8836686e-07
0.013316273
-1.6759248e-07
0.013924616
-4.7476331e-08
0.013954192
2.9531802e-08
0.013459961
4.2757423e-08
0.012400201
0.010348657
-5.3405511e-08
0.0025518018
-1.6234706e-07
0.0068075392
-2.3964025e-07
0.0099081605
-2.385432e-07
0.012023835
-1.6574684e-07
0.0133162
-6.0096839e-08
0.01392451
3.2950345e-08
0.013954099
7.8057487e-08
0.013459916
6.2526251e-08
0.012400216
0.01034872
-3.8443057e-08
0.0025518402
-1.1336578e-07
0.0068076141
-1.5669903e-07
0.0099082038
-1.3553035e-07
0.012023814
-6.1153982e-08
0.013316126
3.0101148e-08
0.013924419
9.8292564e-08
0.01395403
1.1580818e-07
0.013459898
7.721324e-08
0.012400255
0.010348797
-2.5341443e-08
0.0025518656
-7.0731106e-08
0.0068076595
-8.5197765e-08
0.0099082183
-4.7747221e-08
0.012023776
2.6586986e-08
0.013316051
1.03578e-07
0.013924342
1.4940172e-07
0.013953985
1.4403209e-07
0.013459904
8.7481864e-08
0.012400311
0.010348884
-1.40313e-08
0.0025518796
-3.4149255e-08
0.0068076796
-2.4397163e-08
0.0099082085
2.5806051e-08
0.012023726
9.8177536e-08
0.013315979
1.6133588e-07
0.013924279
1.8790963e-07
0.013953958
1.6398355e-07
0.013459927
9.4004286e-08
0.012400381
0.010348978
-4.4045137e-09
0.002551884
-3.1984314e-09
0.0068076784
2.635043e-08
0.009908179
8.5762679e-08
0.012023667
1.5462953e-07
0.01331591
2.0515082e-07
0.013924228
2.1543511e-07
0.013953948
1.7684869e-07
0.013459966
9.7357941e-08
0.012400461
0.010349076
3.6411882e-09
0.0025518804
2.2419823e-08
0.0068076596
6.7526075e-08
0.0099081339
1.3306875e-07
0.012023601
1.9765213e-07
0.013315846
2.3679766e-07
0.013924189
2.3355122e-07
0.013953951
1.8378445e-07
0.013460016
9.8150728e-08
0.012400546
0.010349174
1.0187367e-08
0.0025518702
4.2984544e-08
0.0068076268
9.9884431e-08
0.009908077
1.6912009e-07
0.012023532
2.2889536e-07
0.013315786
2.5795408e-07
0.01392416
2.4372983e-07
0.013953965
1.8583491e-07
0.013460074
9.6882993e-08
0.012400635
0.010349271
1.5353665e-08
0.0025518548
5.8979871e-08
0.0068075832
1.2439398e-07
0.0099080116
1.9526872e-07
0.012023461
2.4992592e-07
0.013315731
2.7017717e-07
0.01392414
2.4728945e-07
0.013953988
1.8392586e-07
0.013460137
9.4014646e-08
0.012400725
0.010349365
1.9277065e-08
0.0025518355
7.0899161e-08
0.0068075316
1.4197265e-07
0.0099079405
2.127737e-07
0.01202339
2.6216284e-07
0.013315682
2.748328e-07
0.013924127
2.4535288e-07
0.013954018
1.788085e-07
0.013460204
8.9877015e-08
0.012400814
0.010349455
2.2096924e-08
0.0025518134
7.9219358e-08
0.0068074745
1.5348728e-07
0.0099078662
2.2280095e-07
0.012023321
2.6689548e-07
0.013315638
2.7313075e-07
0.013924121
2.3888618e-07
0.013954052
1.7110421e-07
0.013460271
8.4768957e-08
0.012400901
0.010349539
2.3942252e-08
0.0025517895
8.4386387e-08
0.006807414
1.5973547e-07
0.0099077909
2.2639964e-07
0.012023254
2.6524934e-07
0.013315599
2.6609691e-07
0.01392412
2.2866382e-07
0.013954089
1.6126806e-07
0.013460339
7.8816292e-08
0.012400983
0.010349618
2.4948235e-08
0.0025517646
8.6840994e-08
0.0068073521
1.6149126e-07
0.0099077162
2.2458041e-07
0.012023191
2.5831169e-07
0.013315565
2.5471495e-07
0.013924123
2.1544547e-07
0.013954129
1.497724e-07
0.013460404
7.2263261e-08
0.012401061
0.01034969
2.5236155e-08
0.0025517393
8.6993394e-08
0.0068072904
1.594739e-07
0.0099076438
2.1827733e-07
0.012023132
2.4707095e-07
0.013315536
2.3987766e-07
0.013924131
1.9990558e-07
0.013954169
1.37022e-07
0.013460467
6.5226232e-08
0.012401132
0.010349756
2.4935126e-08
0.0025517144
8.526003e-08
0.00680723
1.5441024e-07
0.0099075746
2.0843268e-07
0.012023078
2.3254877e-07
0.013315512
2.2253194e-07
0.013924141
1.8280471e-07
0.013954208
1.2354012e-07
0.013460527
5.8007051e-08
0.012401198
0.010349814
2.4156778e-08
0.0025516902
8.2021342e-08
0.0068071722
1.4696595e-07
0.0099075097
1.9591764e-07
0.012023029
2.1567373e-07
0.013315492
2.0354073e-07
0.013924153
1.6483743e-07
0.013954247
1.0978378e-07
0.013460582
5.077473e-08
0.012401257
0.010349864
2.301387e-08
0.0025516672
7.7645964e-08
0.0068071175
1.3778499e-07
0.0099074495
1.8156491e-07
0.012022986
1.9735242e-07
0.013315477
1.8375216e-07
0.013924166
1.4671151e-07
0.013954284
9.6260369e-08
0.013460632
4.3830956e-08
0.012401309
0.010349908
2.1600182e-08
0.0025516456
7.2451911e-08
0.0068070667
1.2741703e-07
0.0099073945
1.6607919e-07
0.012022947
1.783231e-07
0.013315464
1.6384168e-07
0.013924181
1.2895507e-07
0.013954319
8.3325839e-08
0.013460678
3.732022e-08
0.012401355
0.010349946
1.9999396e-08
0.0025516256
6.6713493e-08
0.00680702
1.1633091e-07
0.0099073449
1.5004059e-07
0.012022913
1.5918031e-07
0.013315455
1.4432431e-07
0.013924196
1.1195637e-07
0.013954351
7.121701e-08
0.013460718
3.1368529e-08
0.012401395
0.010349977
1.8275273e-08
0.0025516073
6.0644374e-08
0.0068069776
1.0487613e-07
0.0099073007
1.3386649e-07
0.012022884
1.4031148e-07
0.013315449
1.2549056e-07
0.013924211
9.5877523e-08
0.013954381
5.9976665e-08
0.013460754
2.5939607e-08
0.012401429
0.010350003
1.6483507e-08
0.0025515908
5.4417645e-08
0.0068069397
9.3329094e-08
0.0099072618
1.178614e-07
0.01202286
1.2197558e-07
0.013315445
1.075016e-07
0.013924225
8.0766242e-08
0.013954408
4.9575967e-08
0.013460786
2.0992848e-08
0.012401458
0.010350024
1.4665175e-08
0.0025515762
4.816229e-08
0.0068069062
8.1883566e-08
0.009907228
1.0222931e-07
0.012022839
1.043212e-07
0.013315443
9.0408897e-08
0.013924239
6.6577009e-08
0.013954431
3.9900098e-08
0.013460812
1.6414358e-08
0.012401481
0.01035004
1.2861764e-08
0.0025515633
4.1998715e-08
0.006806877
7.0724255e-08
0.0099071993
8.7162069e-08
0.012022823
8.7499738e-08
0.013315442
7.4294712e-08
0.013924252
5.3315726e-08
0.013954452
3.0913784e-08
0.013460835
1.2182227e-08
0.0124015
0.010350052
1.1104984e-08
0.0025515522
3.602658e-08
0.0068068521
6.0004224e-08
0.0099071753
7.2833648e-08
0.01202281
7.166168e-08
0.013315443
5.9259579e-08
0.013924264
4.1029837e-08
0.013954471
2.2612614e-08
0.013460853
8.2575057e-09
0.012401514
0.010350061
9.429794e-09
0.0025515428
3.0351012e-08
0.0068068312
4.9895196e-08
0.0099071558
5.9448603e-08
0.012022801
5.7016422e-08
0.013315446
4.5490449e-08
0.013924276
2.9873989e-08
0.013954486
1.5127719e-08
0.013460868
4.7371284e-09
0.012401525
0.010350065
7.8600395e-09
0.0025515349
2.5056058e-08
0.006806814
4.0542079e-08
0.0099071403
4.7195363e-08
0.012022794
4.3768189e-08
0.013315449
3.3189348e-08
0.013924287
2.0033674e-08
0.013954499
8.6107357e-09
0.013460879
1.7260536e-09
0.012401532
0.010350067
6.4253568e-09
0.0025515285
2.0231377e-08
0.0068068002
3.2124386e-08
0.0099071284
3.6365953e-08
0.01202279
3.2319024e-08
0.013315453
2.2837747e-08
0.013924296
1.2006226e-08
0.01395451
3.480205e-09
0.013460888
-5.6269964e-10
0.012401536
0.010350067
2.9034581e-09
9.0936608e-09
1.4303846e-08
1.5942263e-08
1.3848565e-08
9.3763168e-09
4.5134308e-09
8.8746134e-10
-5.2537519e-10
)
;

boundaryField
{
    water_inlet
    {
        type            calculated;
        value           nonuniform List<scalar> 10(-0.0021750989 -0.0058428937 -0.0086267772 -0.010688211 -0.012161792 -0.013159549 -0.01377456 -0.014084001 -0.014151716 -0.014030398);
    }
    water_outlet
    {
        type            calculated;
        value           nonuniform List<scalar> 10(0.0025515256 0.006806794 0.0099071232 0.012022788 0.013315455 0.013924301 0.013954515 0.013460891 0.012401537 0.010350066);
    }
    water_wedge1
    {
        type            wedge;
        value           nonuniform List<scalar> 
1000
(
-1.1296161e-13
-1.4267975e-13
-1.1216477e-13
-1.0631339e-13
-9.9352888e-14
-9.3387213e-14
-8.8691555e-14
-8.4954446e-14
-8.1977092e-14
-7.948961e-14
-7.7282413e-14
-7.5239815e-14
-7.3263699e-14
-7.1278584e-14
-6.9186482e-14
-6.6855892e-14
-6.4134983e-14
-6.0816647e-14
-5.6666185e-14
-5.1411413e-14
-4.4795153e-14
-3.6656272e-14
-2.7078487e-14
-1.6560281e-14
-5.8660066e-15
4.0622801e-15
1.2374639e-14
1.8674259e-14
2.2898967e-14
2.5294817e-14
2.6223412e-14
2.6007869e-14
2.502428e-14
2.3516507e-14
2.1688462e-14
1.9701375e-14
1.7623073e-14
1.5585931e-14
1.3615162e-14
1.1731952e-14
9.9975313e-15
8.3915079e-15
6.9295702e-15
5.6161462e-15
4.4400201e-15
3.4011059e-15
2.4922232e-15
1.7134431e-15
1.046429e-15
4.8018334e-16
1.4797538e-17
-3.6686634e-16
-6.7577931e-16
-9.1260717e-16
-1.0839174e-15
-1.2030993e-15
-1.2840639e-15
-1.326378e-15
-1.3307099e-15
-1.310702e-15
-1.2686257e-15
-1.204932e-15
-1.1291878e-15
-1.0448645e-15
-9.545003e-16
-8.681414e-16
-7.719198e-16
-6.7308638e-16
-5.8749303e-16
-4.9822485e-16
-4.132682e-16
-3.4393748e-16
-2.7349763e-16
-2.0812642e-16
-1.555926e-16
-1.0598423e-16
-6.0764285e-17
-2.3038791e-17
3.127291e-18
2.9107612e-17
4.8495346e-17
5.9627202e-17
7.4505224e-17
7.8770228e-17
8.4107005e-17
8.8652172e-17
8.6573977e-17
8.6546642e-17
7.7301217e-17
6.9248794e-17
7.165089e-17
6.7287203e-17
5.5979768e-17
4.7510869e-17
3.9932729e-17
4.0661538e-17
3.7851474e-17
2.1283608e-17
1.8665374e-17
1.3125358e-17
-6.8081378e-13
-1.033545e-12
-8.3928935e-13
-7.9752825e-13
-7.4939925e-13
-7.0313869e-13
-6.6536452e-13
-6.3522808e-13
-6.1093643e-13
-5.9052952e-13
-5.7244982e-13
-5.5560555e-13
-5.3912543e-13
-5.2219995e-13
-5.0397567e-13
-4.8343361e-13
-4.5934469e-13
-4.3018849e-13
-3.9436589e-13
-3.5055283e-13
-2.9813873e-13
-2.3765732e-13
-1.7103736e-13
-1.0155685e-13
-3.3369173e-14
2.8952267e-14
8.149016e-14
1.2215497e-13
1.5064459e-13
1.6797667e-13
1.7589028e-13
1.7634594e-13
1.7126076e-13
1.6226798e-13
1.5072702e-13
1.376933e-13
1.2393092e-13
1.1004425e-13
9.6444581e-14
8.3437144e-14
7.1222561e-14
5.9898666e-14
4.9549034e-14
4.0195001e-14
3.1825956e-14
2.4422888e-14
1.7935462e-14
1.2314587e-14
7.512906e-15
3.4687667e-15
1.1582125e-16
-2.6154952e-15
-4.7992957e-15
-6.4997403e-15
-7.7679654e-15
-8.6547922e-15
-9.2117878e-15
-9.4944291e-15
-9.5348412e-15
-9.3781426e-15
-9.0661652e-15
-8.6214057e-15
-8.0815196e-15
-7.476272e-15
-6.8313051e-15
-6.1647979e-15
-5.4846169e-15
-4.8108358e-15
-4.1624126e-15
-3.5420627e-15
-2.9617466e-15
-2.4217921e-15
-1.9241663e-15
-1.4797841e-15
-1.0846471e-15
-7.3690956e-16
-4.2763373e-16
-1.6664915e-16
4.713377e-17
2.2404612e-16
3.614213e-16
4.7215263e-16
5.5134966e-16
6.0183127e-16
6.3298741e-16
6.4200901e-16
6.4019493e-16
6.2625056e-16
5.9691939e-16
5.5974938e-16
5.2124381e-16
4.7853651e-16
4.2942723e-16
3.8103822e-16
3.3620863e-16
2.9174253e-16
2.5027735e-16
2.060393e-16
1.6749986e-16
9.8122625e-17
3.1339114e-12
4.8023026e-12
3.9072366e-12
3.711389e-12
3.4900548e-12
3.2689324e-12
3.0860166e-12
2.9387779e-12
2.8176143e-12
2.7124751e-12
2.6152697e-12
2.5197197e-12
2.4205103e-12
2.3123566e-12
2.1894922e-12
2.046111e-12
1.8774905e-12
1.6810975e-12
1.4574238e-12
1.210553e-12
9.4810034e-13
6.8018131e-13
4.1761205e-13
1.7020545e-13
-5.3300148e-14
-2.4554797e-13
-4.0218483e-13
-5.2206357e-13
-6.0638454e-13
-6.5807413e-13
-6.8128449e-13
-6.8085248e-13
-6.6173878e-13
-6.2865116e-13
-5.8577038e-13
-5.36632e-13
-4.8412443e-13
-4.305035e-13
-3.7749561e-13
-3.2636739e-13