/*--------------------------------*- C++ -*----------------------------------*\
| =========                 |                                                 |
| \\      /  F ield         | OpenFOAM: The Open Source CFD Toolbox           |
|  \\    /   O peration     | Version:  2506                                  |
|   \\  /    A nd           | Website:  www.openfoam.com                      |
|    \\/     M anipulation  |                                                 |
\*---------------------------------------------------------------------------*/
FoamFile
{
    version     2.0;
    format      ascii;
    arch        "LSB;label=32;scalar=64";
    class       volVectorField;
    location    "7000/water";
    object      U;
}
// * * * * * * * * * * * * * * * * * * * * * * * * * * * * * * * * * * * * * //

dimensions      [0 1 -1 0 0 0 0];

internalField   nonuniform List<vector> 
1000
(
(0.25225587 -0.00012859768 2.5948736e-18)
(0.25226258 -0.00027067837 1.2349637e-18)
(0.25227485 -0.00041450541 2.0101433e-18)
(0.25228819 -0.00055572717 9.4023822e-19)
(0.25229018 -0.00068575791 1.0567592e-18)
(0.25223998 -0.00079863173 2.5685988e-19)
(0.25200713 -0.00089615194 -2.8074556e-20)
(0.25115686 -0.0010460356 -3.6010506e-19)
(0.24780473 -0.0012820719 -2.2285104e-19)
(0.23308261 0.0010121611 -4.9888751e-19)
(0.25653043 -7.7330464e-05 2.8378441e-18)
(0.25653977 -0.00018903833 1.2409158e-18)
(0.25655871 -0.0002909654 2.0204552e-18)
(0.25657276 -0.00039024492 1.1673648e-18)
(0.25654377 -0.00048175045 1.1229875e-18)
(0.25636039 -0.00055898451 3.7248372e-19)
(0.25570613 -0.00060536508 3.1569608e-20)
(0.25355952 -0.00065441375 -5.1244296e-19)
(0.24574266 -0.00084724778 -3.1596865e-19)
(0.21968686 0.00025718797 -5.3680092e-19)
(0.26021787 -7.3910023e-05 6.737409e-20)
(0.26022468 -0.00018059841 -1.9268549e-19)
(0.26023383 -0.00027741922 4.6687289e-19)
(0.26021807 -0.00037159756 8.9802564e-19)
(0.26010153 -0.00045735793 -2.5944033e-20)
(0.25968006 -0.00053044633 -1.3176488e-20)
(0.25840621 -0.00057093165 -2.6600092e-20)
(0.25452353 -0.00056554868 -4.6148642e-19)
(0.24186464 -0.00061987774 -4.7927835e-19)
(0.20839343 1.1251794e-05 -5.0311849e-19)
(0.26340526 -6.8945988e-05 -5.2876629e-19)
(0.26340956 -0.00017058512 2.688774e-19)
(0.26340597 -0.00026279234 8.2825756e-19)
(0.2633478 -0.00035138374 7.3849645e-19)
(0.26310913 -0.00042951151 -2.2849868e-19)
(0.26237282 -0.00049395028 -2.5546431e-19)
(0.26030374 -0.00052751079 -1.8936672e-19)
(0.25430848 -0.00049290096 -4.0557457e-19)
(0.23723183 -0.00045934429 -4.4553743e-19)
(0.19958839 -4.887677e-05 -4.0967632e-19)
(0.26641628 -6.4388882e-05 -2.2356314e-18)
(0.26641556 -0.0001594686 1.1611096e-18)
(0.266392 -0.00024539838 1.0929601e-18)
(0.26627267 -0.00032748739 3.9759964e-19)
(0.26586989 -0.00039791717 9.4479317e-21)
(0.26472854 -0.00045250599 3.0955144e-19)
(0.26164544 -0.00047360866 3.9697119e-20)
(0.25321251 -0.00041483844 -2.678746e-19)
(0.23271015 -0.00033459381 -3.0641894e-19)
(0.19329507 -5.0632456e-05 -2.3454242e-19)
(0.26927574 -6.0867406e-05 -5.5369965e-19)
(0.26926716 -0.00015024303 1.5231712e-18)
(0.26921481 -0.00023070407 9.7905277e-19)
(0.26901237 -0.00030702687 6.3602009e-19)
(0.26839648 -0.00037049937 3.1978467e-19)
(0.26673519 -0.00041493169 5.3162528e-19)
(0.26236792 -0.00041871776 7.50632e-21)
(0.25136282 -0.00033834959 -1.7124349e-19)
(0.22869801 -0.00023662895 -5.575897e-20)
(0.18902123 -3.9493894e-05 -1.2937231e-19)
(0.27197991 -5.8057472e-05 2.4675699e-18)
(0.27196007 -0.00014287119 2.6488865e-18)
(0.27186829 -0.00021894811 5.951872e-19)
(0.2715565 -0.00029030322 6.7505144e-19)
(0.27066608 -0.0003472895 3.55978e-19)
(0.26833154 -0.00038068239 -2.442728e-20)
(0.26239852 -0.00036437231 -2.2481689e-19)
(0.24902643 -0.00026852464 -1.8900172e-19)
(0.22536099 -0.00016272719 -6.3315592e-20)
(0.1861682 -2.8773886e-05 -2.8797031e-19)
(0.27455816 -5.5861811e-05 -2.0923764e-19)
(0.27452281 -0.00013703203 1.6205547e-18)
(0.27437848 -0.00020952005 1.0601464e-18)
(0.27392442 -0.00027640488 6.3261693e-19)
(0.27267857 -0.00032682068 3.8187999e-19)
(0.26947688 -0.000347384 9.0272157e-20)
(0.2617847 -0.00031092654 6.3330963e-20)
(0.24657383 -0.00020816843 -1.1062209e-19)
(0.22271518 -0.0001105007 -3.2432077e-19)
(0.18425832 -2.0836134e-05 -3.1040639e-19)
(0.27704027 -5.4085713e-05 1.1702482e-18)
(0.27698407 -0.00013225433 4.1891714e-19)
(0.27677057 -0.00020162568 1.2830538e-18)
(0.2761317 -0.00026417273 4.9312175e-19)
(0.27442313 -0.00030720543 3.8714775e-19)
(0.27014173 -0.00031294702 6.8554581e-20)
(0.26069001 -0.00025925698 1.02438e-19)
(0.24429835 -0.00015836344 -6.0052992e-20)
(0.22067581 -7.5407629e-05 -3.2443499e-20)
(0.18296195 -1.5152827e-05 -4.5675949e-20)
(0.27944341 -5.255578e-05 3.0774262e-18)
(0.27935955 -0.00012814139 2.051127e-18)
(0.27905543 -0.00019460755 5.2303842e-19)
(0.27817575 -0.00025259227 4.1812138e-19)
(0.27586796 -0.00028673412 3.8080838e-19)
(0.27032643 -0.00027659141 2.5105889e-20)
(0.25933503 -0.00021093955 -6.7006343e-20)
(0.24234216 -0.00011891137 -4.0427938e-20)
(0.21912383 -5.2171158e-05 2.5851016e-20)
(0.18206599 -1.0945434e-05 -1.4890232e-19)
(0.28177654 -5.1166733e-05 1.8011405e-18)
(0.28165619 -0.00012441986 5.3281401e-19)
(0.2812333 -0.00018797319 2.6615172e-19)
(0.280039 -0.00024077475 1.2458511e-18)
(0.27697396 -0.00026417661 3.8330485e-19)
(0.27008762 -0.00023880444 1.2110938e-19)
(0.25792269 -0.00016762394 -3.7969468e-20)
(0.24073181 -8.8482132e-05 -1.0658657e-20)
(0.21795022 -3.6446191e-05 -2.1357744e-19)
(0.18143936 -7.6995551e-06 -1.7965907e-19)
(0.28404477 -4.9854821e-05 1.7033209e-18)
(0.28387626 -0.00012089437 3.9786992e-19)
(0.28329739 -0.00018132938 2.3942584e-19)
(0.28169343 -0.00022787755 1.0148368e-18)
(0.27771471 -0.0002389746 4.3995444e-19)
(0.2695351 -0.00020087686 9.7272166e-20)
(0.2565914 -0.0001303669 2.0911168e-21)
(0.23943782 -6.5173023e-05 -1.2940618e-19)
(0.21706901 -2.5326646e-05 -3.340386e-19)
(0.18100322 -5.1224396e-06 -1.8248793e-19)
(0.28625049 -4.8572098e-05 4.3574376e-19)
(0.28601827 -0.00011740099 6.596308e-19)
(0.28523427 -0.00017430211 3.4411058e-19)
(0.28310493 -0.00021314232 7.4696473e-19)
(0.27809438 -0.00021129135 7.43346e-19)
(0.26879943 -0.00016439926 1.6044166e-19)
(0.25541095 -9.9330465e-05 -1.2919762e-20)
(0.23841401 -4.7156465e-05 -1.7862975e-19)
(0.21641536 -1.70794e-05 -1.9391373e-19)
(0.18070888 -3.0435875e-06 -1.6505932e-19)
(0.28839355 -4.7270919e-05 8.5956457e-19)
(0.28807683 -0.00011377572 9.7488887e-19)
(0.28702342 -0.00016645982 6.513815e-19)
(0.28424078 -0.000196026 7.8040403e-19)
(0.2781555 -0.00018188533 3.8823356e-19)
(0.26799602 -0.00013078958 1.425804e-19)
(0.25440309 -7.3936551e-05 -4.6558878e-19)
(0.23761477 -3.3002865e-05 -2.3400249e-19)
(0.21594073 -1.0715104e-05 -7.8305846e-20)
(0.18052445 -1.3522828e-06 -2.2034208e-19)
(0.29047097 -4.5891396e-05 2.0200566e-18)
(0.29004195 -0.00010982899 3.2143656e-18)
(0.28863779 -0.00015729283 6.4055095e-19)
(0.28508024 -0.00017633807 1.2318027e-19)
(0.27797083 -0.00015188643 -8.312762e-21)
(0.26720626 -0.00010094565 -6.2565796e-20)
(0.25356402 -5.3257323e-05 -3.3346259e-19)
(0.23700054 -2.1696966e-05 -2.5540635e-19)
(0.21560861 -5.6581444e-06 -2.3331539e-19)
(0.18042758 3.4616945e-08 -9.3414219e-20)
(0.29247637 -4.4351499e-05 1.0872436e-18)
(0.29189831 -0.00010531325 8.6091415e-19)
(0.2900463 -0.0001462817 4.7382497e-19)
(0.2856247 -0.00015430587 6.8307452e-19)
(0.27762408 -0.00012253858 -3.7757089e-20)
(0.26647732 -7.5146974e-05 -1.7929487e-19)
(0.25287923 -3.6356865e-05 1.2379721e-19)
(0.23653862 -1.2543478e-05 -1.0055985e-19)
(0.21539112 -1.526793e-06 -1.6584273e-19)
(0.18040205 1.2061006e-06 8.1828894e-20)
(0.294399 -4.2542622e-05 1.4894504e-18)
(0.2936244 -9.9894448e-05 1.0524414e-18)
(0.29121908 -0.00013303004 3.2939315e-19)
(0.28590171 -0.00013054491 6.1539546e-19)
(0.27719084 -9.4943638e-05 4.4630912e-19)
(0.26583133 -5.3197978e-05 3.8533628e-19)
(0.25233097 -2.2452542e-05 1.4028849e-19)
(0.23620236 -5.0202057e-06 -1.6347597e-20)
(0.21526451 1.8976718e-06 -6.9060287e-20)
(0.18043775 2.1937e-06 -1.6055754e-19)
(0.29622248 -4.0322248e-05 8.5814538e-19)
(0.29519258 -9.3155286e-05 7.9296652e-19)
(0.29213502 -0.00011739293 4.3887671e-19)
(0.28595986 -0.00010594346 7.6320685e-19)
(0.2767282 -6.9857383e-05 7.7463621e-19)
(0.26527516 -3.4649608e-05 1.1324103e-19)
(0.2519011 -1.0911042e-05 1.2682861e-19)
(0.23596807 1.2316918e-06 -3.8496041e-21)
(0.21521693 4.7058979e-06 -4.162468e-20)
(0.18052216 2.9886061e-06 -1.0824034e-19)
(0.29792334 -3.7501326e-05 3.4271004e-19)
(0.29657067 -8.4660482e-05 6.119233e-19)
(0.29278916 -9.9552397e-05 4.9510281e-19)
(0.285857 -8.1496669e-05 3.472815e-19)
(0.27627356 -4.7620098e-05 1.0337908e-19)
(0.26480713 -1.8984655e-05 -5.747074e-20)
(0.25157194 -1.2544546e-06 -2.935174e-19)
(0.23582162 6.4202834e-06 -1.3529348e-19)
(0.21523438 6.9889847e-06 -1.1805369e-19)
(0.18064614 3.6203172e-06 -1.9315304e-19)
(0.29946982 -3.3841748e-05 -8.4179446e-19)
(0.29772603 -7.4080563e-05 8.8653191e-19)
(0.29319628 -8.0020422e-05 -1.513316e-19)
(0.28564803 -5.8126974e-05 -1.6613399e-18)
(0.27584861 -2.8226542e-05 -2.9344314e-19)
(0.2644212 -5.6915992e-06 -1.9726856e-19)
(0.25132937 6.8551048e-06 -1.4794568e-19)
(0.23575038 1.0704007e-05 -6.2954423e-20)
(0.21530525 8.8445386e-06 -1.1190571e-19)
(0.18080245 4.1233445e-06 -3.3335838e-20)
(0.30082185 -2.9095174e-05 1.1490435e-19)
(0.29863175 -6.1332924e-05 7.2153184e-19)
(0.29338823 -5.956834e-05 -4.604723e-19)
(0.28537718 -3.6524196e-05 -8.2054523e-19)
(0.27546384 -1.1419052e-05 -3.2384446e-19)
(0.26410765 5.6144887e-06 -4.3629218e-19)
(0.2511654 1.3621457e-05 -1.7088237e-19)
(0.23574181 1.4218073e-05 -1.621241e-20)
(0.21542012 1.0353787e-05 1.4284075e-20)
(0.1809852 4.5259254e-06 1.5666995e-19)
(0.30193376 -2.3109214e-05 2.0132992e-18)
(0.29927339 -4.6685756e-05 1.34175e-18)
(0.29340604 -3.9093196e-05 -1.3462604e-19)
(0.28507548 -1.7049563e-05 4.8555488e-19)
(0.27512089 3.0816518e-06 8.0082648e-19)
(0.26386445 1.5138067e-05 5.0795626e-19)
(0.25106783 1.9207752e-05 2.0705306e-20)
(0.2357854 1.7092919e-05 -6.8955164e-20)
(0.21557119 1.157953e-05 -1.9573148e-20)
(0.18118945 4.8472674e-06 -7.1356407e-20)
(0.30276114 -1.5977456e-05 -1.7299678e-18)
(0.29965291 -3.0774251e-05 -5.3195702e-19)
(0.29329059 -1.943769e-05 -1.1392495e-19)
(0.28476123 1.6620537e-07 -8.2859843e-19)
(0.27482458 1.5439185e-05 7.5026677e-20)
(0.2636834 2.3070096e-05 -1.1813754e-19)
(0.25102649 2.3801107e-05 1.8469885e-19)
(0.23587239 1.943324e-05 -1.9019973e-20)
(0.21575197 1.2564109e-05 1.6182424e-20)
(0.18141103 5.0986788e-06 3.6566412e-20)
(0.30327139 -8.128183e-06 8.0319827e-19)
(0.29978739 -1.4486774e-05 1.6594286e-18)
(0.29307481 -1.3061375e-06 1.9742741e-19)
(0.28444921 1.5038967e-05 -3.1355129e-19)
(0.27457434 2.5803718e-05 -1.1397964e-18)
(0.26355616 2.9613577e-05 -6.2959426e-19)
(0.25103262 2.7544726e-05 -4.4185373e-19)
(0.23599542 2.1311395e-05 -1.1102421e-19)
(0.21595695 1.3335984e-05 2.666916e-20)
(0.18164625 5.2873533e-06 8.6412892e-20)
(0.30345403 -2.4219463e-07 7.4530006e-19)
(0.29970268 1.1330934e-06 1.0311434e-18)
(0.2927864 1.4662714e-05 -5.7677866e-19)
(0.28414895 2.7526464e-05 -3.0618721e-19)
(0.27436561 3.4337689e-05 -3.4469945e-19)
(0.26347497 3.4931013e-05 -3.0098543e-19)
(0.25107851 3.0537196e-05 -3.1909562e-19)
(0.2361481 2.2775106e-05 -1.7158644e-19)
(0.21618127 1.3913212e-05 -1.547442e-20)
(0.18189178 5.4173301e-06 5.5387083e-20)
(0.30332519 6.8815946e-06 -2.4233432e-18)
(0.29943299 1.4985944e-05 -2.1790317e-18)
(0.29244691 2.7995402e-05 -1.8326702e-18)
(0.28386233 3.7678373e-05 -1.8831007e-18)
(0.27419303 4.1188996e-05 -1.1372486e-18)
(0.26343257 3.912979e-05 -1.0246502e-18)
(0.2511573 3.2837798e-05 -8.1006175e-20)
(0.23632475 2.385056e-05 5.2994371e-20)
(0.21642057 1.4303746e-05 8.506883e-20)
(0.18214444 5.4893204e-06 1.4442643e-19)
(0.30293054 1.2607802e-05 1.813658e-18)
(0.29901533 2.6254482e-05 -8.9373756e-20)
(0.29206924 3.8509957e-05 -5.7580894e-19)
(0.28358876 4.5592034e-05 -4.2405088e-20)
(0.27405096 4.6454326e-05 4.5144223e-19)
(0.2634222 4.2269213e-05 1.2115892e-19)
(0.25126272 3.4474366e-05 1.0509902e-19)
(0.23652016 2.4545475e-05 2.0143491e-19)
(0.21667065 1.4506212e-05 1.5397178e-19)
(0.18240108 5.5008513e-06 3.4398482e-20)
(0.30233163 1.6686917e-05 -2.1855974e-19)
(0.29848532 3.4602447e-05 -4.9655871e-19)
(0.29166293 4.6233461e-05 -4.5113077e-19)
(0.28332651 5.1362473e-05 1.224388e-19)
(0.27393381 5.0197371e-05 9.126653e-19)
(0.26343755 4.4380645e-05 6.0321558e-19)
(0.25138895 3.5454752e-05 1.4809774e-19)
(0.23672935 2.4855138e-05 5.9781676e-20)
(0.2169274 1.4512865e-05 2.5108459e-20)
(0.1826584 5.4473214e-06 3.284034e-20)
(0.3015932 1.9182385e-05 1.4896564e-18)
(0.29787655 4.0085261e-05 1.1368045e-18)
(0.29123633 5.1328463e-05 -5.0057766e-19)
(0.28307382 5.5104409e-05 -2.7050902e-19)
(0.27383647 5.2479463e-05 -6.712442e-19)
(0.26347281 4.5488314e-05 1.2281415e-19)
(0.25153053 3.5780444e-05 -1.76979e-19)
(0.23694751 2.4771132e-05 -8.7705271e-20)
(0.21718662 1.431451e-05 -1.3330847e-19)
(0.18291291 5.3239369e-06 3.2503693e-20)
(0.30077401 2.0343695e-05 1.3691471e-18)
(0.29721989 4.3029633e-05 5.1177121e-19)
(0.29079785 5.406328e-05 -3.5051659e-19)
(0.2828296 5.6974927e-05 -3.4434455e-19)
(0.27375458 5.3382492e-05 -4.1043458e-19)
(0.2635228 4.5627525e-05 -2.6710144e-19)
(0.25168237 3.546032e-05 -1.88637e-19)
(0.23716993 2.4290668e-05 -9.3885726e-20)
(0.21744404 1.3905745e-05 -1.3165975e-19)
(0.18316096 5.1275918e-06 -4.1638145e-20)
(0.29992217 2.0483116e-05 -3.8497039e-18)
(0.29654257 4.3897809e-05 -2.6306616e-18)
(0.29035622 5.4779242e-05 -1.5515777e-18)
(0.28259382 5.7180151e-05 -2.1552278e-18)
(0.27368473 5.3022447e-05 -1.0379263e-18)
(0.26358306 4.4858502e-05 -1.1181776e-18)
(0.25183983 3.4522266e-05 -2.9950713e-19)
(0.23739212 2.3424968e-05 -1.98997e-19)
(0.21769547 1.3290095e-05 -4.9029578e-20)
(0.18339885 4.8588957e-06 -3.1498816e-20)
(0.29907421 1.9895841e-05 1.8319878e-18)
(0.29586744 4.3177485e-05 -3.7180029e-19)
(0.28992019 5.3852629e-05 9.0584127e-20)
(0.28236749 5.5966517e-05 5.209164e-19)
(0.27362454 5.1551383e-05 5.639894e-19)
(0.26364988 4.3271864e-05 2.5710552e-19)
(0.25199879 3.3018783e-05 -2.3592862e-20)
(0.23760992 2.2203522e-05 -1.4048742e-19)
(0.2179369 1.2482582e-05 -9.0206947e-20)
(0.18362307 4.5230775e-06 -1.3102444e-19)
(0.29825616 1.8825319e-05 8.9463821e-19)
(0.29521263 4.1314376e-05 -2.3830418e-19)
(0.28949798 5.1658913e-05 4.3502071e-19)
(0.28215236 5.3603031e-05 3.0756008e-19)
(0.27357256 4.9150111e-05 4.1597018e-20)
(0.26372035 4.0986329e-05 -8.7905576e-20)
(0.25215571 3.1026641e-05 3.2134604e-20)
(0.23781959 2.0674241e-05 -5.3550307e-20)
(0.21816472 1.1509947e-05 -1.2711808e-19)
(0.18383054 4.1300816e-06 -9.5347486e-20)
(0.29748548 1.7457328e-05 6.4582234e-19)
(0.29459169 3.8682064e-05 3.1664926e-18)
(0.28909671 4.8545397e-05 6.7046476e-19)
(0.28195055 5.0360997e-05 -9.2457223e-20)
(0.273528 4.6015202e-05 -7.8500921e-19)
(0.26379223 3.8140414e-05 -5.81862e-19)
(0.25230768 2.8641334e-05 -5.3885006e-19)
(0.238018 1.8899662e-05 -2.4330567e-19)
(0.21837591 1.0408274e-05 -3.2300175e-20)
(0.18401873 3.6935887e-06 -5.9782849e-20)
(0.29677297 1.5927245e-05 6.760365e-19)
(0.294014 3.5576373e-05 3.5365604e-18)
(0.28872213 4.4814862e-05 6.1482194e-19)
(0.28176415 4.6496595e-05 1.8258851e-19)
(0.27349056 4.2344829e-05 -2.6998568e-19)
(0.26386389 3.4881566e-05 -7.8029203e-20)
(0.25245241 2.5968891e-05 -1.0226351e-19)
(0.23820263 1.6951066e-05 -1.2206043e-19)
(0.21856813 9.2192755e-06 -6.5521214e-20)
(0.18418588 3.2294951e-06 -4.9230991e-20)
(0.29612455 1.4330961e-05 -2.9605842e-18)
(0.29348545 3.2222503e-05 -1.4845882e-18)
(0.28837838 4.071917e-05 -9.9495058e-19)
(0.28159493 4.2238942e-05 -1.3310988e-18)
(0.27346019 3.8326679e-05 -5.7339761e-19)
(0.26393414 3.1355659e-05 -1.4191442e-19)
(0.25258815 2.3117406e-05 3.1119798e-19)
(0.23837163 1.4902231e-05 2.2889791e-21)
(0.21873982 7.9863348e-06 -1.442769e-20)
(0.18433102 2.7543129e-06 8.8902923e-20)
(0.29554252 1.2734999e-05 4.0946952e-18)
(0.2930091 2.8786793e-05 -2.4459989e-19)
(0.28806812 3.6459823e-05 -1.3326266e-19)
(0.28144417 3.7783679e-05 1.4733969e-18)
(0.27343687 3.412923e-05 1.4700028e-18)
(0.26400216 2.7698364e-05 8.6283114e-19)
(0.25271369 2.01896e-05 3.735754e-19)
(0.23852381 1.282382e-05 2.2457527e-19)
(0.21889016 6.75095e-06 1.0025687e-19)
(0.18445395 2.2837353e-06 3.8638346e-20)
(0.29502665 1.1184556e-05 2.0852257e-18)
(0.29258579 2.538885e-05 7.0688682e-20)
(0.28779259 3.219254e-05 7.4956334e-20)
(0.28131253 3.3291102e-05 8.8214947e-19)
(0.27342051 2.9896655e-05 1.1112228e-18)
(0.26406732 2.4029124e-05 5.6426047e-19)
(0.25282825 1.7277227e-05 2.0519712e-19)
(0.23865857 1.0779024e-05 1.5391191e-19)
(0.21901905 5.5499352e-06 2.6358251e-20)
(0.18455516 1.8314853e-06 -2.9568241e-20)
(0.29457494 9.7095427e-06 7.9653615e-19)
(0.29221473 2.2112304e-05 3.1332249e-18)
(0.28755189 2.8033683e-05 9.2810139e-19)
(0.28120012 2.8887506e-05 2.5428814e-19)
(0.27341089 2.5746896e-05 -3.8849857e-19)
(0.26412919 2.0447836e-05 3.6212488e-19)
(0.25293144 1.4457631e-05 -1.3886095e-19)
(0.23877583 8.8208268e-06 -3.1528423e-20)
(0.21912698 4.413748e-06 6.8171032e-20)
(0.18463575 1.4087225e-06 1.3908111e-20)
(0.2941842 8.3287985e-06 5.2023944e-18)
(0.29189392 1.9013361e-05 4.1771363e-18)
(0.28734518 2.4066794e-05 2.4518415e-18)
(0.28110651 2.4668143e-05 2.1807581e-18)
(0.27340761 2.177179e-05 1.4752102e-18)
(0.26418743 1.7033452e-05 8.2636709e-19)
(0.25302314 1.1791869e-05 3.6234145e-19)
(0.23887599 6.9903655e-06 2.969697e-19)
(0.21921496 3.3653707e-06 1.7831794e-19)
(0.18469724 1.0235565e-06 -3.0419151e-20)
(0.29385046 7.053284e-06 1.5079585e-18)
(0.29162054 1.6127744e-05 1.0782416e-18)
(0.28717088 2.0348973e-05 4.4197277e-18)
(0.2810308 2.0701372e-05 3.1532476e-18)
(0.27341011 1.8039089e-05 2.1688667e-18)
(0.26424176 1.3844653e-05 1.5879308e-18)
(0.25310352 9.3247982e-06 1.1574175e-18)
(0.23895978 5.3169262e-06 6.2817963e-19)
(0.2192844 2.4204162e-06 5.2212128e-19)
(0.1847415 6.8120737e-07 1.5421757e-19)
(0.29356933 5.8882254e-06 1.4488986e-18)
(0.2913912 1.3475833e-05 2.7770079e-18)
(0.28702691 1.6916276e-05 3.8275805e-18)
(0.28097179 1.7032821e-05 3.0006733e-18)
(0.27341773 1.4595112e-05 2.3293021e-18)
(0.26429199 1.0921408e-05 1.8382098e-18)
(0.25317293 7.0860099e-06 1.4181652e-18)
(0.2390282 3.8185694e-06 8.5627695e-19)
(0.21933693 1.5875009e-06 6.1016186e-19)
(0.18477055 3.8413686e-07 3.0614949e-19)
(0.29333617 4.8348458e-06 1.5469417e-18)
(0.29120223 1.1066867e-05 2.5078321e-18)
(0.28691084 1.3788634e-05 3.203844e-18)
(0.28092801 1.3689864e-05 4.3930328e-18)
(0.27342971 1.1468357e-05 3.6536679e-18)
(0.26433799 8.2878414e-06 1.854585e-18)
(0.25323189 5.0921767e-06 1.6170468e-18)
(0.23908247 2.5040579e-06 1.1790851e-18)
(0.21937438 8.697082e-07 7.4477931e-19)
(0.18478649 1.3275545e-07 5.6275751e-19)
(0.2931463 3.8914819e-06 5.4937312e-19)
(0.29104978 8.9019054e-06 1.7922086e-18)
(0.28682004 1.0973617e-05 2.6909562e-18)
(0.28089786 1.0685283e-05 3.7334541e-18)
(0.27344524 8.6725994e-06 3.5012259e-18)
(0.26437967 5.9547006e-06 2.7527115e-18)
(0.25328103 3.3488216e-06 1.881761e-18)
(0.23912391 1.3738584e-06 1.3952079e-18)
(0.21939862 2.7061856e-07 9.5931494e-19)
(0.18479138 -7.021617e-08 7.557362e-19)
(0.29299511 3.0543567e-06 1.431976e-18)
(0.29093001 6.9758462e-06 2.6003033e-18)
(0.28675179 8.4690562e-06 1.0022102e-18)
(0.28087965 8.0198657e-06 9.3234926e-19)
(0.27346352 6.2090829e-06 2.6181757e-18)
(0.26441702 3.9211552e-06 2.0911881e-18)
(0.25332107 1.8526397e-06 1.540869e-18)
(0.2391539 4.2759206e-07 1.1459541e-18)
(0.2194112 -2.1476647e-07 7.414987e-19)
(0.18478761 -2.2886795e-07 6.0191977e-19)
(0.29287817 2.3182834e-06 2.3162442e-18)
(0.29083914 5.2793309e-06 1.6011051e-18)
(0.28670338 6.2658059e-06 2.9542132e-18)
(0.28087171 5.6855973e-06 1.8879552e-18)
(0.27348378 4.0699237e-06 1.039812e-18)
(0.26445005 2.1789898e-06 1.7494807e-18)
(0.25335274 5.9889192e-07 1.5262721e-18)
(0.23917353 -3.4377249e-07 1.3389908e-18)
(0.21941456 -6.0473794e-07 1.1451096e-18)
(0.18477671 -3.5424201e-07 7.3565579e-19)
(0.29279122 1.6772997e-06 3.2742837e-18)
(0.29077356 3.8004381e-06 2.001721e-18)
(0.28667217 4.3502987e-06 2.2402177e-18)
(0.28087241 3.6689176e-06 2.3321765e-18)
(0.27350527 2.2423924e-06 1.6254539e-18)
(0.2644788 7.1902014e-07 2.1224101e-18)
(0.25337659 -4.2683305e-07 1.9251919e-18)
(0.23918481 -9.6327435e-07 1.5802819e-18)
(0.21941029 -9.1308111e-07 1.2206327e-18)
(0.18476016 -4.5108345e-07 8.5069602e-19)
(0.2927303 1.1249748e-06 1.4613134e-18)
(0.29072983 2.5255855e-06 3.0543632e-18)
(0.28665566 2.7060875e-06 3.8404473e-18)
(0.28088018 1.9533356e-06 4.4771927e-18)
(0.27352728 7.1309346e-07 3.7910839e-18)
(0.26450319 -4.7772284e-07 2.406787e-18)
(0.25339399 -1.2525932e-06 2.05485e-18)
(0.239189 -1.4505224e-06 1.6085869e-18)
(0.21939986 -1.146631e-06 1.2796873e-18)
(0.18473935 -5.2115669e-07 1.0617127e-18)
(0.29269169 6.5473287e-07 4.1597769e-19)
(0.29070474 1.4406379e-06 2.0587159e-18)
(0.28665145 1.3165811e-06 3.2242377e-18)
(0.28089352 5.2294443e-07 3.3852096e-18)
(0.27354906 -5.4052495e-07 3.4277223e-18)
(0.26452391 -1.4427975e-06 2.324765e-18)
(0.25340576 -1.9028746e-06 1.7247488e-18)
(0.23918728 -1.8186705e-06 1.588005e-18)
(0.21938459 -1.3124724e-06 1.456314e-18)
(0.18471552 -5.6699305e-07 1.1531959e-18)
(0.29267196 2.6042838e-07 1.227193e-18)
(0.29069528 5.325143e-07 1.6897764e-18)
(0.28665728 1.6440681e-07 -4.102676e-19)
(0.28091098 -6.4787327e-07 7.5507162e-20)
(0.27357052 -1.5521653e-06 1.6817703e-18)
(0.26454118 -2.2040105e-06 1.7493638e-18)
(0.25341263 -2.395698e-06 1.4836246e-18)
(0.23918072 -2.0806582e-06 1.4716396e-18)
(0.2193657 -1.4190837e-06 1.2332782e-18)
(0.18468975 -5.9188695e-07 9.7035583e-19)
(0.29266791 -6.4403551e-08 6.768613e-19)
(0.29069866 -2.1458731e-07 2.3898528e-18)
(0.28667113 -7.7552674e-07 3.0748396e-18)
(0.28093168 -1.5918313e-06 1.0925979e-18)
(0.27359127 -2.3503208e-06 2.2565893e-19)
(0.26455525 -2.7823855e-06 1.4108644e-18)
(0.25341532 -2.7484506e-06 1.5862338e-18)
(0.23917034 -2.2500458e-06 1.5491148e-18)
(0.21934423 -1.4751424e-06 1.4802126e-18)
(0.18466297 -5.9918444e-07 1.0634217e-18)
(0.29267668 -3.2777439e-07 1.0268515e-18)
(0.29071244 -8.1984818e-07 1.6421735e-18)
(0.28669136 -1.5296004e-06 2.875335e-18)
(0.28095461 -2.3342315e-06 1.8908295e-18)
(0.27361099 -2.9569803e-06 1.0994292e-18)
(0.26456636 -3.1983815e-06 1.2424712e-18)
(0.25341449 -2.9789752e-06 1.5895188e-18)
(0.23915702 -2.3402449e-06 1.492831e-18)
(0.21932113 -1.4889179e-06 1.3198754e-18)
(0.18463595 -5.9206288e-07 1.1046053e-18)
(0.29269576 -5.3706499e-07 2.6341705e-18)
(0.2907345 -1.2996527e-06 9.0288392e-19)
(0.28671642 -2.1178318e-06 1.5201751e-18)
(0.28097889 -2.896394e-06 1.938749e-18)
(0.27362944 -3.3938971e-06 1.4594471e-18)
(0.2645748 -3.4725643e-06 1.8283554e-18)
(0.25341079 -3.1046413e-06 1.6007888e-18)
(0.23914157 -2.3638917e-06 1.4410367e-18)
(0.21929718 -1.4679804e-06 1.2544208e-18)
(0.18460931 -5.7338498e-07 1.1164462e-18)
(0.29272292 -6.9819901e-07 2.7432371e-18)
(0.2907629 -1.6677072e-06 1.7027055e-18)
(0.28674494 -2.5585376e-06 5.904268e-19)
(0.28100377 -3.2993154e-06 1.1442393e-18)
(0.27364644 -3.6826529e-06 1.8114941e-19)
(0.26458083 -3.6249382e-06 1.606365e-18)
(0.25340478 -3.1420058e-06 1.5655737e-18)
(0.2391247 -2.332812e-06 1.5234238e-18)
(0.21927305 -1.4192776e-06 1.3996503e-18)
(0.18458357 -5.4573795e-07 1.1202288e-18)
(0.29275618 -8.1682439e-07 9.2937836e-19)
(0.29079596 -1.9370871e-06 2.3924342e-18)
(0.28677571 -2.8695295e-06 3.3728635e-18)
(0.28102863 -3.5635196e-06 1.6954143e-18)
(0.27366188 -3.8441465e-06 1.7339127e-18)
(0.26458476 -3.6746175e-06 9.4261729e-19)
(0.253397 -3.1066717e-06 1.4608045e-18)
(0.23910702 -2.2579991e-06 1.5264446e-18)
(0.21924928 -1.3491814e-06 1.2647021e-18)
(0.18455911 -5.1146055e-07 1.0802187e-18)
(0.2927938 -8.9829872e-07 -6.8992613e-19)
(0.29083218 -2.1202831e-06 2.0973568e-18)
(0.28680772 -3.0679381e-06 4.419935e-18)
(0.28105294 -3.7086887e-06 2.8407719e-18)
(0.27367571 -3.8982315e-06 2.3736719e-18)
(0.26458685 -3.6395408e-06 1.8065677e-18)
(0.25338792 -3.0130855e-06 1.5342692e-18)
(0.23908903 -2.1494986e-06 1.3853138e-18)
(0.21922631 -1.2634521e-06 1.4384336e-18)
(0.18453621 -4.7263355e-07 1.182841e-18)
(0.29283426 -9.4767028e-07 3.2706919e-19)
(0.29087029 -2.2291148e-06 1.2369458e-18)
(0.28684009 -3.1699894e-06 -3.6072253e-19)
(0.2810763 -3.7533575e-06 1.8137777e-18)
(0.2736879 -3.8634007e-06 2.0723185e-18)
(0.26458739 -3.5361743e-06 2.2709666e-18)
(0.25337795 -2.8742862e-06 1.6934132e-18)
(0.23907117 -2.0162213e-06 1.4480694e-18)
(0.21920446 -1.1671303e-06 1.4614011e-18)
(0.18451507 -4.3105556e-07 1.1983891e-18)
(0.29287626 -9.6965717e-07 1.4993382e-18)
(0.29090918 -2.2746425e-06 2.9164831e-18)
(0.28687209 -3.1908195e-06 1.8958574e-18)
(0.28109839 -3.7146651e-06 1.0363513e-18)
(0.27369851 -3.7565224e-06 1.8146569e-18)
(0.26458662 -3.3792722e-06 1.7290508e-18)
(0.25336745 -2.7017092e-06 1.7209513e-18)
(0.23905377 -1.8657993e-06 1.7398882e-18)
(0.21918399 -1.0644437e-06 1.5799484e-18)
(0.18449579 -3.8821897e-07 1.2746885e-18)
(0.29291871 -9.6860991e-07 9.0756596e-19)
(0.29094795 -2.2670714e-06 2.5793375e-18)
(0.28690316 -3.1443248e-06 1.9313596e-18)
(0.28111898 -3.6081802e-06 1.0172832e-18)
(0.27370757 -3.5926738e-06 8.2756644e-19)
(0.26458481 -3.1817468e-06 1.2785203e-18)
(0.25335674 -2.5051043e-06 1.7463946e-18)
(0.23903713 -1.7045285e-06 1.7784218e-18)
(0.21916507 -9.5874333e-07 1.534694e-18)
(0.18447844 -3.452734e-07 1.3320811e-18)
(0.29296067 -9.4853778e-07 1.3970822e-18)
(0.29098584 -2.2157731e-06 2.023044e-18)
(0.28693283 -3.0431673e-06 2.9060012e-18)
(0.28113792 -3.4479209e-06 2.7116052e-18)
(0.27371519 -3.3852128e-06 2.2701545e-18)
(0.26458216 -2.9548026e-06 8.7337863e-19)
(0.25334607 -2.2927131e-06 1.3726045e-18)
(0.23902143 -1.5375614e-06 1.4691634e-18)
(0.2191478 -8.5265862e-07 1.2457299e-18)
(0.18446302 -3.0309856e-07 1.15428e-18)
(0.2930014 -9.1309371e-07 1.9559528e-18)
(0.29102225 -2.1292733e-06 3.1237101e-18)
(0.28696073 -2.8987843e-06 4.003519e-18)
(0.28115511 -3.2464092e-06 3.7335107e-18)
(0.27372146 -3.1458901e-06 2.8160758e-18)
(0.26457889 -2.708109e-06 2.2561788e-18)
(0.25333565 -2.0714859e-06 1.7548416e-18)
(0.23900684 -1.3691116e-06 1.5947387e-18)
(0.21913225 -7.4823625e-07 1.6624252e-18)
(0.18444948 -2.6234545e-07 1.2408486e-18)
(0.29304031 -8.6560237e-07 1.0893257e-18)
(0.29105672 -2.0153077e-06 1.6043837e-18)
(0.28698663 -2.721477e-06 3.7690883e-19)
(0.28117051 -3.0148063e-06 2.3627894e-18)
(0.27372648 -2.8850442e-06 2.4964525e-18)
(0.26457516 -2.4500507e-06 2.9960594e-18)
(0.25332566 -1.8473537e-06 2.3195153e-18)
(0.23899346 -1.2027129e-06 1.868907e-18)
(0.21911841 -6.4714992e-07 1.6955032e-18)
(0.18443778 -2.2352151e-07 1.4087739e-18)
(0.29307693 -8.0907545e-07 6.8408991e-19)
(0.29108888 -1.8808648e-06 2.4524292e-19)
(0.28701035 -2.5204821e-06 1.2672111e-18)
(0.28118412 -2.7630201e-06 1.5432015e-18)
(0.27373039 -2.6117478e-06 1.8645579e-18)
(0.26457114 -2.1878977e-06 2.1856451e-18)
(0.25331622 -1.6254073e-06 2.1534372e-18)
(0.23898133 -1.0413848e-06 2.0093221e-18)
(0.21910627 -5.5083352e-07 1.7430308e-18)
(0.18442782 -1.8705546e-07 1.402757e-18)
(0.29311093 -7.4619215e-07 6.2725207e-19)
(0.2911185 -1.7321642e-06 2.3940935e-20)
(0.28703179 -2.3039657e-06 8.1519667e-19)
(0.28119599 -2.4997147e-06 9.5440984e-19)
(0.27373329 -2.3338226e-06 7.9870913e-19)
(0.26456697 -1.9278209e-06 1.5348944e-18)
(0.25330743 -1.4099011e-06 2.0096311e-18)
(0.2389705 -8.8761673e-07 1.9637942e-18)
(0.21909578 -4.6045812e-07 1.8546064e-18)
(0.1844195 -1.5327519e-07 1.4180712e-18)
(0.29314208 -6.7932143e-07 6.3105474e-19)
(0.29114542 -1.5746862e-06 1.5544988e-18)
(0.28705092 -2.0790524e-06 2.8169769e-18)
(0.28120617 -2.2323405e-06 1.7974687e-18)
(0.27373531 -2.0578764e-06 2.5458284e-18)
(0.26456274 -1.674922e-06 1.5412264e-18)
(0.25329934 -1.2042649e-06 1.7277652e-18)
(0.23896094 -7.4336669e-07 1.6483433e-18)
(0.21908684 -3.7693962e-07 1.5171958e-18)
(0.18441269 -1.224394e-07 1.362325e-18)
(0.29317027 -6.1049729e-07 3.2274311e-18)
(0.29116958 -1.4131359e-06 3.8302975e-18)
(0.28706776 -1.8517909e-06 4.4609564e-18)
(0.28121477 -1.9671067e-06 2.7154387e-18)
(0.27373656 -1.7892701e-06 2.6844976e-18)
(0.26455858 -1.433192e-06 2.3192219e-18)
(0.25329201 -1.0110483e-06 1.8250596e-18)
(0.23895262 -6.0998593e-07 1.7728998e-18)
(0.21907937 -3.0084868e-07 1.7474119e-18)
(0.18440726 -9.4683707e-08 1.3866287e-18)
(0.29319543 -5.4143822e-07 2.637002e-18)
(0.29119097 -1.2514723e-06 3.1042227e-18)
(0.28708238 -1.6271926e-06 6.4913128e-19)
(0.28122189 -1.7090322e-06 2.1980817e-18)
(0.27373717 -1.5321836e-06 2.6975361e-18)
(0.26455454 -1.2055786e-06 2.5901759e-18)
(0.25328545 -8.319789e-07 2.2235767e-18)
(0.2389455 -4.8825737e-07 1.9630261e-18)
(0.21907325 -2.32428e-07 1.8113593e-18)
(0.18440307 -7.0036482e-08 1.4418088e-18)
(0.29321759 -4.7355956e-07 7.0782449e-19)
(0.29120966 -1.0929437e-06 1.4985241e-18)
(0.28709487 -1.4092932e-06 2.1246635e-18)
(0.28122765 -1.4620334e-06 2.4334682e-18)
(0.27373722 -1.2897246e-06 2.5117305e-18)
(0.26455069 -9.9410612e-07 2.8219203e-18)
(0.25327965 -6.6807231e-07 2.2580023e-18)
(0.2389395 -3.7847866e-07 1.9749251e-18)
(0.21906837 -1.7163294e-07 1.7858186e-18)
(0.18439998 -4.8423898e-08 1.490034e-18)
(0.29323684 -4.0800465e-07 2.4691692e-18)
(0.29122573 -9.4015471e-07 1.7742114e-18)
(0.28710536 -1.2012523e-06 1.6911665e-18)
(0.28123218 -1.2290641e-06 1.9246767e-18)
(0.27373684 -1.0640961e-06 6.8942705e-19)
(0.26454709 -8.0005087e-07 1.877433e-18)
(0.25327461 -5.1979744e-07 2.0379463e-18)
(0.23893455 -2.8060263e-07 2.0530745e-18)
(0.2190646 -1.1823193e-07 1.7230495e-18)
(0.18439785 -2.9706894e-08 1.4754718e-18)
(0.29325329 -3.456687e-07 1.4694116e-18)
(0.29123932 -7.9513061e-07 1.3991939e-18)
(0.28711398 -1.0054604e-06 2.2366594e-18)
(0.2812356 -1.0122537e-06 1.9095988e-18)
(0.27373609 -8.5674889e-07 1.6386034e-18)
(0.26454375 -6.2409136e-07 7.5828371e-19)
(0.25327028 -3.8720859e-07 1.5360453e-18)
(0.23893056 -1.9433291e-07 1.6877348e-18)
(0.21906182 -7.1867351e-08 1.4059168e-18)
(0.18439656 -1.3700924e-08 1.312733e-18)