/*--------------------------------*- C++ -*----------------------------------*\
| =========                 |                                                 |
| \\      /  F ield         | OpenFOAM: The Open Source CFD Toolbox           |
|  \\    /   O peration     | Version:  2506                                  |
|   \\  /    A nd           | Website:  www.openfoam.com                      |
|    \\/     M anipulation  |                                                 |
\*---------------------------------------------------------------------------*/
FoamFile
{
    version     2.0;
    format      ascii;
    arch        "LSB;label=32;scalar=64";
    class       volScalarField;
    location    "14000/water";
    object      alphat;
}
// * * * * * * * * * * * * * * * * * * * * * * * * * * * * * * * * * * * * * //

dimensions      [1 -1 -1 0 0 0 0];

internalField   nonuniform List<scalar> 
6000
(
0.041292847
0.041292824
0.041292831
0.041292856
0.041292889
0.041292932
0.041292983
0.041293016
0.041292808
0.041290571
0.041271537
0.041111294
0.0397723
0.030564074
0.013464793
0.040788543
0.040788537
0.040788576
0.040788654
0.040788758
0.040788888
0.04078902
0.040788972
0.040787494
0.040776037
0.040696382
0.040161217
0.036863805
0.023766469
0.015141611
0.04033569
0.040335696
0.040335761
0.040335884
0.040336044
0.040336229
0.04033633
0.040335685
0.040330323
0.040296649
0.040097616
0.038983223
0.033614213
0.0194951
0.016360294
0.039926215
0.039926219
0.039926301
0.039926459
0.03992666
0.039926848
0.039926701
0.039924457
0.039910659
0.039835636
0.039448738
0.037597438
0.030384627
0.016783058
0.017196555
0.039553796
0.039553808
0.039553906
0.039554093
0.039554312
0.039554413
0.039553622
0.0395481
0.039519187
0.039379112
0.038737841
0.036066498
0.027427863
0.015063192
0.01773179
0.039213273
0.039213296
0.039213408
0.039213613
0.039213809
0.039213657
0.039211571
0.039200298
0.039147643
0.038916647
0.037965398
0.034462847
0.024852826
0.013984463
0.018040007
0.038900366
0.038900399
0.038900521
0.038900723
0.038900826
0.038900159
0.038895819
0.03887551
0.038788999
0.038441492
0.037140256
0.032849727
0.022675913
0.013336844
0.018183117
0.038611532
0.038611573
0.038611697
0.038611866
0.038611765
0.038610199
0.038602307
0.038568928
0.038437606
0.037950377
0.036275872
0.031274836
0.020870828
0.012994967
0.018210197
0.038343817
0.038343862
0.038343975
0.038344065
0.038343601
0.038340605
0.038327517
0.03827644
0.038089201
0.037442856
0.03538704
0.029770034
0.019396999
0.012882914
0.018158676
0.038094736
0.03809478
0.038094862
0.038094803
0.038093753
0.038088644
0.038068396
0.037994592
0.037740813
0.036920504
0.03448763
0.028354169
0.018213448
0.012953916
0.018056304
0.037862183
0.037862216
0.037862238
0.037861935
0.037860009
0.037851941
0.037822294
0.037720559
0.037390607
0.036386134
0.033589398
0.02703684
0.017284481
0.013178532
0.017923231
0.03764436
0.037644371
0.037644291
0.037643618
0.037640447
0.037628426
0.037586933
0.037452106
0.037037684
0.035843147
0.032701562
0.025821837
0.016581272
0.013537499
0.017773886
0.037439726
0.037439699
0.03743946
0.037438254
0.037433393
0.037416287
0.037360374
0.037187532
0.036681868
0.035295042
0.031830871
0.02470985
0.016081614
0.014017191
0.017618497
0.037246949
0.037246861
0.037246392
0.037244452
0.037237378
0.037213943
0.037140989
0.036925609
0.0363235
0.034745073
0.030981931
0.023700436
0.015768976
0.014606606
0.017464261
0.037064871
0.037064693
0.037063903
0.037060987
0.037051109
0.037020016
0.036927437
0.036665512
0.035963258
0.03419604
0.030157673
0.022793377
0.015631332
0.015295285
0.017316197
0.03689248
0.036892177
0.036890955
0.036886782
0.036873442
0.036833316
0.036718634
0.03640675
0.035602004
0.033650187
0.029359858
0.021989539
0.015659917
0.016071914
0.01717775
0.036728885
0.036728414
0.036726628
0.036720878
0.03670337
0.036652818
0.036513731
0.036149096
0.035240656
0.033109157
0.028589603
0.021291346
0.015847992
0.016923492
0.017051196
0.036573301
0.03657261
0.036570106
0.036562424
0.036540005
0.036477653
0.03631208
0.035892529
0.034880099
0.032574024
0.027847913
0.02070292
0.016189617
0.01783505
0.016937916
0.036425028
0.036424056
0.036420663
0.036410663
0.036382564
0.036307092
0.036113215
0.03563717
0.034521109
0.032045349
0.027136212
0.020229919
0.016678486
0.018789895
0.016838558
0.036283441
0.03628212
0.036277645
0.036264917
0.036230367
0.036140535
0.03591682
0.035383242
0.034164308
0.031523285
0.026456862
0.019879123
0.017306891
0.019770317
0.016753165
0.036147982
0.036146234
0.036140468
0.036124584
0.036082821
0.035977497
0.035722708
0.035131018
0.033810124
0.031007717
0.025813646
0.019657797
0.018064912
0.0207586
0.016681265
0.036018143
0.036015885
0.036008605
0.035989127
0.035939416
0.035817597
0.035530799
0.034880794
0.033458783
0.030498445
0.025212142
0.019572905
0.018939949
0.021738147
0.016621966
0.03589347
0.03589061
0.035881581
0.035858069
0.035799718
0.035660549
0.035341095
0.034632853
0.033110301
0.029995409
0.024659951
0.019630248
0.019916664
0.02269449
0.016574063
0.035773545
0.035769987
0.035758968
0.035730991
0.035663366
0.035506152
0.035153669
0.034387441
0.032764498
0.029498968
0.024166686
0.019833637
0.020977366
0.023616003
0.016536152
0.035657992
0.035653635
0.035640383
0.035607524
0.035530063
0.035354279
0.034968643
0.03414475
0.03242103
0.029010211
0.023743688
0.020184173
0.022102784
0.024494228
0.016506745
0.035546464
0.035541207
0.035525479
0.035487349
0.035399574
0.035204869
0.034786172
0.033904896
0.032079439
0.028531301
0.023403466
0.020679734
0.023273104
0.025323802
0.016484372
0.035438647
0.035432386
0.035413948
0.035370193
0.035271718
0.035057919
0.034606436
0.03366791
0.03173923
0.028065807
0.023158914
0.021314706
0.0244691
0.026102089
0.016467662
0.035334251
0.035326887
0.035305516
0.035255823
0.03514637
0.034913479
0.03442962
0.033433727
0.031399978
0.02761899
0.023022388
0.022080016
0.02567317
0.026828633
0.016455398
0.035233012
0.035224448
0.035199939
0.03514405
0.035023453
0.034771643
0.034255909
0.033202186
0.031061475
0.027197981
0.023004769
0.022963452
0.026870127
0.027504567
0.016446544
0.035134691
0.035124836
0.035097009
0.035034724
0.034902936
0.03463254
0.03408547
0.032973033
0.030723902
0.026811799
0.023114632
0.023950249
0.02804767
0.028132079
0.016440248
0.035039067
0.03502784
0.034996542
0.034927732
0.034784832
0.034496333
0.033918446
0.032745938
0.030388046
0.026471167
0.023357596
0.025023882
0.02919649
0.028713982
0.016435834
0.034945943
0.034933275
0.034898386
0.034822996
0.034669194
0.034363211
0.033754944
0.032520522
0.030055534
0.026188098
0.023735914
0.026166981
0.030310098
0.029253407
0.016432778
0.034855141
0.034840974
0.034802418
0.034720475
0.034556112
0.034233382
0.033595029
0.032296401
0.029729078
0.025975301
0.024248332
0.027362249
0.031384438
0.029753593
0.016430685
0.034766502
0.034750797
0.03470854
0.034620164
0.034445715
0.034107066
0.033438713
0.032073259
0.029412692
0.025845433
0.024890188
0.028593296
0.032417398
0.030217765
0.016429265
0.034679887
0.034662624
0.034616684
0.034522088
0.034338162
0.033984492
0.033285952
0.031850929
0.029111866
0.025810312
0.025653729
0.029845304
0.033408313
0.030649045
0.016428312
0.034595176
0.034576356
0.034526808
0.034426308
0.034233647
0.033865888
0.033136649
0.03162952
0.028833632
0.025880167
0.026528616
0.031105456
0.034357528
0.031050409
0.016427682
0.034512269
0.034491917
0.034438897
0.034332917
0.034132389
0.033751478
0.032990657
0.031409555
0.028586514
0.026063008
0.027502551
0.032363142
0.035266041
0.031424647
0.016427279
0.034431083
0.034409252
0.034352965
0.034242042
0.034034637
0.033641469
0.032847794
0.031192142
0.028380314
0.026364173
0.028561976
0.033609946
0.036135247
0.031774346
0.016427047
0.034351558
0.034328331
0.034269052
0.034153841
0.033940664
0.03353605
0.032707869
0.03097915
0.028225758
0.026786088
0.029692786
0.034839471
0.036966769
0.032101874
0.01642695
0.034273652
0.034249145
0.03418723
0.034068505
0.03385076
0.033435384
0.03257072
0.030773393
0.028133997
0.027328219
0.030880991
0.036047066
0.037762343
0.032409381
0.016426974
0.034197344
0.03417171
0.034107598
0.033986257
0.033765237
0.033339598
0.032436276
0.030578782
0.028116032
0.027987223
0.032113283
0.037229501
0.038523754
0.032698798
0.016427117
0.034122637
0.034096065
0.034030285
0.033907355
0.033684417
0.033248788
0.032304627
0.030400436
0.028182107
0.028757249
0.033377459
0.038384662
0.039252794
0.032971855
0.016427382
0.034049553
0.034022276
0.033955452
0.033832084
0.033608631
0.033163013
0.032176131
0.030244715
0.028341141
0.029630358
0.034662706
0.039511265
0.039951227
0.033230086
0.016427779
0.03397814
0.033950437
0.033883292
0.033760766
0.033538215
0.0330823
0.032051524
0.030119155
0.028600249
0.030597022
0.035959727
0.04060864
0.040620777
0.033474856
0.016428318
0.033908471
0.033880668
0.033814033
0.033693749
0.033473498
0.033006662
0.031932062
0.030032292
0.028964398
0.031646653
0.037260744
0.041676559
0.0412631
0.033707373
0.01642901
0.033840644
0.033813121
0.033747936
0.033631414
0.033414804
0.032936115
0.031819663
0.029993372
0.029436214
0.032768131
0.038559406
0.042715109
0.04187978
0.033928706
0.016429865
0.033774787
0.03374798
0.033685299
0.033574167
0.033362442
0.032870718
0.031717046
0.030011965
0.030015937
0.033950286
0.03985063
0.043724613
0.042472315
0.034139802
0.016430892
0.033711057
0.03368546
0.033626458
0.033522441
0.0333167
0.032810616
0.031627856
0.030097524
0.030701528
0.035182305
0.041130418
0.044705566
0.043042115
0.034341503
0.016432097
0.033649643
0.033625814
0.033571787
0.03347669
0.033277845
0.032756114
0.031556737
0.030258909
0.031488883
0.036454048
0.042395666
0.045658589
0.0435905
0.034534554
0.016433487
0.03359077
0.033569333
0.033521698
0.033437387
0.033246121
0.032707758
0.031509361
0.030503944
0.03237215
0.037756271
0.043643998
0.046584398
0.044118701
0.034719619
0.016435064
0.033534699
0.033516348
0.033476647
0.033405019
0.033221754
0.032666435
0.031492363
0.030839034
0.033344094
0.03908074
0.044873615
0.047483773
0.044627866
0.03489729
0.016436831
0.033481731
0.033467235
0.033437127
0.033380083
0.033204962
0.032633493
0.031513202
0.031268873
0.034396499
0.04042027
0.046083179
0.048357536
0.045119062
0.035068098
0.016438788
0.033432211
0.033422413
0.033403675
0.033363077
0.033195978
0.032610858
0.031579928
0.031796273
0.035520562
0.041768695
0.047271721
0.049206534
0.045593279
0.035232515
0.016440933
0.033386531
0.033382352
0.033376864
0.033354498
0.033195079
0.032601153
0.031700877
0.032422099
0.036707263
0.043120794
0.048438567
0.050031618
0.04605144
0.03539097
0.016443266
0.033345134
0.033347573
0.033357309
0.033354836
0.033202629
0.032607795
0.031884313
0.033145326
0.037947683
0.044472187
0.049583286
0.050833636
0.0464944
0.035543846
0.016445782
0.033308518
0.033318652
0.033345661
0.033364571
0.033219143
0.032635064
0.032138047
0.033963186
0.039233258
0.045819228
0.050705643
0.051613425
0.046922954
0.035691491
0.016448478
0.033277237
0.03329622
0.033342601
0.033384174
0.033245363
0.032688112
0.032469075
0.034871389
0.040555973
0.047158897
0.051805564
0.052371799
0.047337842
0.03583422
0.016451351
0.033251914
0.033280969
0.033348844
0.033414106
0.033282345
0.032772918
0.032883251
0.035864405
0.041908477
0.048488705
0.052883104
0.05310955
0.047739751
0.035972321
0.016454394
0.033233235
0.033273651
0.033365128
0.033454835
0.033331562
0.032896166
0.033385036
0.036935763
0.043284145
0.049806608
0.053938422
0.053827445
0.04812932
0.036106054
0.016457603
0.033221962
0.033275082
0.03339221
0.03350685
0.033395015
0.03306505
0.033977336
0.038078366
0.044677088
0.051110937
0.054971759
0.054526221
0.048507146
0.036235659
0.016460974
0.033218934
0.033286139
0.033430863
0.033570695
0.033475329
0.033287019
0.034661421
0.039284779
0.046082131
0.052400342
0.055983418
0.055206587
0.048873783
0.036361357
0.016464499
0.033225073
0.033307762
0.03348187
0.033647006
0.033575842
0.03356948
0.035436948
0.04054749
0.047494761
0.053673744
0.056973753
0.055869226
0.049229756
0.036483354
0.016468174
0.033241386
0.033340955
0.03354602
0.033736575
0.033700655
0.033919471
0.036302061
0.041859133
0.048911065
0.054930289
0.057943148
0.056514767
0.049575442
0.036601083
0.01647199
0.033268972
0.033386779
0.03362411
0.033840416
0.033854645
0.034343354
0.037253549
0.04321265
0.050327666
0.056169318
0.058892004
0.057143804
0.04991124
0.036714879
0.016475942
0.033309023
0.033446354
0.033716951
0.033959855
0.034043412
0.034846527
0.038287065
0.044601415
0.051741659
0.057390333
0.05982074
0.057756908
0.050237554
0.036825045
0.016480019
0.033362829
0.033520851
0.033825373
0.034096621
0.034273171
0.035433205
0.039397361
0.046019302
0.053150548
0.05859297
0.060729784
0.05835463
0.050554794
0.03693185
0.016484214
0.033431774
0.033611489
0.033950253
0.034252946
0.034550578
0.036106257
0.040578542
0.047460724
0.0545522
0.059776982
0.061619566
0.058937447
0.050862919
0.03703558
0.016488518
0.033517343
0.033719531
0.034092544
0.034431655
0.0348825
0.036867134
0.041824305
0.048920634
0.055944793
0.060942216
0.062490506
0.059505804
0.051162147
0.037136394
0.016492923
0.033621113
0.03384628
0.034253318
0.034636239
0.035275748
0.037715863
0.043128159
0.050394509
0.057326777
0.062088592
0.063343024
0.060060155
0.051452976
0.037234382
0.016497425
0.033744756
0.033993077
0.034433828
0.034870894
0.035736793
0.038651114
0.044483617
0.051878318
0.058696842
0.0632161
0.06417754
0.060600964
0.051735845
0.037329651
0.016502019
0.033890033
0.034161306
0.034635584
0.035140518
0.036271482
0.039670335
0.045884346
0.053368486
0.060053881
0.064324779
0.064994458
0.061128562
0.052011156
0.037422328
0.0165067
0.034058785
0.034352402
0.034860432
0.035450656
0.036884793
0.040769914
0.047324283
0.054861849
0.061396971
0.065414709
0.065794129
0.061642936
0.052279298
0.037512559
0.016511467
0.034252935
0.034567869
0.035110655
0.035807374
0.037580622
0.041945384
0.048797713
0.056355617
0.062725337
0.066486
0.066576915
0.062144656
0.052540476
0.03760045
0.016516317
0.034474479
0.03480931
0.035389056
0.036217096
0.038361648
0.043191628
0.050299314
0.057847334
0.064038337
0.067538787
0.067343199
0.062634233
0.05279491
0.037686084
0.016521247
0.034725488
0.035078471
0.035699041
0.036686373
0.039229251
0.044503092
0.051824182
0.059334838
0.065335443
0.068573234
0.068093381
0.063112125
0.053042828
0.037769543
0.016526253
0.03500811
0.035377297
0.036044674
0.037221629
0.040183512
0.04587397
0.05336783
0.060816238
0.066616228
0.069589486
0.068827357
0.063578797
0.053284483
0.03785092
0.016531331
0.035324589
0.035708006
0.036430688
0.037828896
0.041223268
0.047298373
0.05492618
0.062289875
0.067880336
0.070587695
0.069545607
0.064034555
0.053520081
0.037930303
0.016536479
0.035677287
0.036073174
0.036862457
0.038513552
0.042346218
0.048770472
0.056495535
0.063754292
0.069127476
0.07156805
0.070248602
0.0644797
0.053749809
0.038007768
0.016541693
0.036068725
0.036475823
0.037345901
0.039280091
0.043549079
0.0502846
0.05807256
0.065208216
0.070357424
0.072530776
0.070936779
0.064914527
0.053973845
0.038083377
0.016546969
0.036501634
0.036919509
0.03788734
0.040131947
0.044827752
0.051835333
0.059654254
0.066650542
0.071569994
0.073475721
0.071610517
0.065339335
0.054192379
0.038157194
0.016552305
0.036979032
0.037408393
0.038493292
0.041071366
0.046177516
0.053417546
0.061237918
0.068080292
0.072765013
0.074403185
0.072270167
0.065754385
0.054405587
0.038229279
0.016557696
0.037504298
0.037947282
0.039170229
0.042099349
0.047593206
0.055026434
0.062821122
0.0694966
0.073942367
0.075313494
0.072916046
0.066159926
0.054613629
0.038299686
0.01656314
0.038081258
0.038541626
0.039924318
0.043215663
0.049069381
0.056657532
0.06440169
0.070898711
0.075101916
0.076206928
0.073548451
0.0665562
0.054816651
0.038368465
0.016568632
0.03871426
0.039197455
0.04076115
0.044418898
0.05060048
0.058306714
0.065977672
0.072285959
0.07624345
0.077083734
0.074167658
0.066943448
0.055014794
0.038435662
0.01657417
0.039408222
0.039921258
0.041685502
0.045706581
0.052180943
0.059970176
0.0675473
0.07365772
0.07736699
0.077944216
0.07477393
0.067321893
0.055208192
0.038501319
0.016579751
0.040168639
0.040719795
0.04270113
0.04707532
0.053805311
0.061644422
0.069108975
0.075013464
0.078472624
0.078788631
0.075367519
0.067691743
0.055396966
0.038565474
0.01658537
0.041001531
0.041599846
0.043810624
0.04852097
0.055468303
0.063326262
0.070661292
0.076352589
0.079560283
0.07961718
0.075948676
0.068053192
0.055581234
0.038628162
0.016591025
0.041913314
0.042567935
0.04501532
0.050038802
0.057164866
0.065012761
0.072202909
0.07767463
0.080630158
0.080430068
0.076517636
0.068406429
0.0557611
0.038689417
0.016596712
0.042910599
0.043630018
0.046315275
0.051623666
0.058890196
0.066701209
0.073732606
0.078979278
0.081682382
0.081227494
0.077074617
0.068751627
0.055936666
0.038749266
0.016602429
0.043999911
0.044791182
0.047709309
0.053270155
0.060639784
0.068389173
0.075249243
0.08026606
0.082717003
0.082009656
0.077619825
0.069088947
0.056108023
0.038807738
0.016608172
0.045187357
0.046055378
0.049195083
0.054972725
0.06240938
0.070074336
0.076751723
0.081534883
0.083734081
0.082776736
0.078153452
0.069418539
0.056275256
0.038864855
0.016613938
0.046478253
0.047425192
0.050769227
0.056725805
0.064194995
0.071754553
0.078239105
0.082785619
0.084733686
0.083528901
0.078675678
0.069740543
0.056438442
0.038920639
0.016619723
0.047876757
0.048901689
0.052427483
0.0585239
0.065992948
0.073427855
0.079710365
0.084018048
0.085715879
0.084266307
0.079186668
0.070055086
0.056597652
0.038975108
0.016625525
0.049385531
0.050484321
0.054164853
0.06036161
0.067799693
0.075092286
0.081165017
0.085231985
0.086680711
0.084989094
0.079686573
0.070362286
0.056752951
0.03902828
0.016631341
0.051005471
0.052170918
0.055975761
0.062233738
0.069611971
0.076745895
0.082602437
0.086427257
0.087628224
0.085697388
0.080175528
0.070662248
0.056904396
0.039080167
0.016637167
0.052735532
0.053957731
0.057854167
0.064135189
0.071426557
0.078387291
0.084022017
0.087603688
0.088558444
0.086391299
0.080653657
0.070955067
0.057052037
0.039130781
0.016643001
0.054572659
0.055839556
0.059793727
0.066061081
0.073240222
0.080015182
0.08542318
0.088761097
0.089471384
0.08707092
0.081121067
0.071240827
0.05719592
0.039180133
0.016648839
0.056511832
0.05780987
0.061787786
0.068006494
0.075050394
0.081628309
0.086805369
0.089899296
0.09036704
0.087736325
0.081577849
0.071519601
0.057336083
0.039228227
0.016654679
0.05854622
0.059861018
0.06382948
0.069966637
0.076854703
0.083225475
0.088168038
0.091018088
0.091245389
0.088387571
0.082024079
0.07179145
0.057472558
0.03927507
0.016660517
0.06066736
0.06198429
0.065911668
0.071937349
0.078650896
0.084805532
0.089510649
0.092117258
0.092106391
0.089024696
0.082459819
0.072056427
0.05760537
0.039320664
0.01666635
0.062865361
0.064170291
0.06802752
0.07391462
0.080436821
0.086367376
0.090832663
0.093196581
0.092949983
0.089647717
0.082885113
0.072314569
0.057734539
0.039365008
0.016672175
0.065129371
0.066409228
0.070170257
0.075894581
0.082210422
0.087909933
0.092133543
0.09425581
0.09377608
0.090256631
0.083299989
0.072565905
0.057860078
0.039408099
0.016677989
0.067447955
0.068691094
0.072333185
0.077873491
0.083969716
0.089432159
0.093412744
0.095294681
0.094584576
0.090851415
0.08370446
0.072810452
0.057981992
0.039449934
0.016683788
0.069809453
0.071005869
0.074509733
0.079847725
0.08571279
0.090933031
0.094669719
0.096312912
0.095375342
0.091432025
0.084098519
0.073048214
0.058100281
0.039490505
0.01668957
0.072202287
0.073343697
0.076693492
0.081813765
0.087437789
0.092411547
0.095903911
0.097310202
0.096148226
0.091998396
0.084482146
0.073279186
0.05821494
0.039529802
0.01669533
0.074615224
0.075695047
0.078878253
0.0837682
0.089142911
0.09386672
0.097114761
0.098286232
0.096903057
0.092550441
0.084855303
0.073503348
0.058325953
0.039567814
0.016701065
0.077037587
0.078050836
0.081058042
0.085707726
0.090826401
0.09529758
0.098301704
0.099240666
0.097639639
0.093088058
0.085217936
0.073720673
0.058433302
0.039604525
0.016706771
0.079459398
0.080402535
0.083227161
0.087629148
0.092486553
0.096703176
0.099464173
0.10017316
0.098357763
0.093611121
0.085569974
0.073931118
0.058536961
0.039639919
0.016712444
0.081871488
0.082742237
0.085380221
0.089529392
0.09412171
0.098082574
0.1006016
0.10108335
0.0990572
0.094119491
0.085911334
0.074134634
0.058636896
0.039673976
0.016718081
0.084265545
0.085062708
0.087512172
0.091405515
0.095730265
0.099434863
0.10171343
0.10197087
0.099737711
0.094613012
0.086241918
0.074331159
0.05873307
0.039706675
0.016723677
0.086634138
0.087357404
0.089618324
0.093254717
0.097310671
0.10075916
0.10279911
0.10283535
0.10039904
0.095091518
0.086561617
0.074520623
0.058825439
0.039737992
0.016729227
0.088970704
0.08962048
0.091694372
0.095074354
0.098861446
0.10205461
0.1038581
0.10367644
0.10104095
0.095554831
0.086870311
0.074702948
0.058913954
0.039767901
0.016734728
0.09126952
0.091846777
0.093736399
0.096861955
0.10038118
0.1033204
0.10488989
0.10449378
0.10166316
0.096002768
0.087167873
0.074878048
0.058998563
0.039796375
0.016740174
0.093525655
0.094031793
0.095740886
0.098615227
0.10186853
0.10455576
0.10589399
0.10528701
0.10226543
0.096435142
0.08745417
0.075045834
0.059079208
0.039823385
0.01674556
0.095734916
0.096171654
0.097704708
0.10033207
0.10332227
0.10575997
0.10686994
0.10605582
0.10284752
0.096851768
0.087729066
0.075206211
0.05915583
0.039848902
0.016750882
0.097893789
0.098263068
0.099625126
0.10201058
0.10474124
0.10693234
0.10781731
0.10679991
0.10340918
0.097252465
0.087992425
0.075359083
0.059228367
0.039872895
0.016756134
0.099999373
0.10030329
0.10149977
0.10364905
0.10612441
0.10807227
0.10873572
0.10751899
0.10395022
0.097637063
0.088244115
0.075504354
0.05929676
0.039895332
0.01676131
0.10204932
0.10229005
0.10332664
0.10524599
0.10747082
0.10917922
0.10962484
0.10821283
0.10447042
0.098005402
0.088484009
0.075641931
0.059360946
0.039916185
0.016766405
0.10404179
0.10422157
0.10510405
0.1068001
0.10877965
0.1102527
0.11048437
0.10888123
0.10496963
0.09835734
0.088711991
0.075771725
0.059420867
0.039935423
0.016771413
0.10597537
0.10609642
0.10683065
0.10831029
0.11005019
0.11129231
0.11131408
0.10952402
0.10544772
0.098692755
0.088927955
0.075893654
0.059476468
0.039953019
0.016776329
0.10784903
0.10791359
0.10850538
0.10977566
0.11128184
0.11229771
0.11211379
0.11014108
0.10590457
0.099011549
0.089131811
0.076007644
0.059527698
0.039968948
0.016781147
0.10966211
0.10967235
0.11012743
0.11119549
0.11247412
0.11326865
0.11288336
0.11073234
0.10634012
0.099313651
0.089323489
0.076113633
0.059574513
0.039983185
0.016785862
0.11141423
0.11137229
0.11169627
0.11256924
0.11362667
0.11420494
0.11362274
0.11129776
0.10675434
0.099599019
0.089502938
0.076211573
0.059616875
0.039995713
0.016790466
0.11310527
0.11301322
0.11321157
0.11389655
0.11473922
0.11510648
0.11433191
0.11183737
0.10714724
0.099867641
0.089670128
0.076301429
0.059654758
0.040006515
0.016794956
0.11473535
0.11459519
0.1146732
0.1151772
0.11581163
0.11597324
0.11501092
0.11235125
0.10751888
0.10011954
0.089825058
0.076383185
0.059688142
0.04001558
0.016799326
0.11630477
0.11611845
0.11608122
0.11641113
0.11684386
0.11680526
0.11565987
0.11283949
0.10786935
0.10035477
0.089967748
0.07645684
0.05971702
0.040022903
0.01680357
0.11781404
0.11758342
0.11743587
0.11759841
0.11783597
0.11760267
0.11627894
0.11330228
0.10819878
0.10057343
0.090098248
0.076522415
0.059741397
0.040028482
0.016807684
0.11926376
0.11899064
0.1187375
0.11873924
0.1187881
0.11836563
0.11686833
0.11373983
0.10850735
0.10077563
0.090216636
0.07657995
0.059761289
0.040032323
0.016811663
0.12065471
0.12034081
0.1199866
0.11983393
0.11970051
0.11909441
0.11742833
0.11415239
0.10879528
0.10096155
0.090323017
0.076629506
0.059776728
0.040034436
0.016815502
0.12198775
0.12163473
0.1211838
0.12088289
0.12057351
0.11978933
0.11795924
0.11454027
0.10906283
0.10113138
0.090417524
0.076671163
0.059787755
0.04003484
0.016819199
0.12326383
0.12287328
0.12232979
0.12188663
0.1214075
0.12045075
0.11846144
0.11490382
0.10931029
0.10128534
0.09050032
0.076705023
0.059794427
0.040033556
0.01682275
0.12448399
0.12405744
0.12342537
0.12284574
0.12220295
0.12107911
0.11893534
0.11524341
0.10953799
0.10142369
0.090571592
0.076731211
0.059796815
0.040030615
0.016826151
0.12564934
0.12518825
0.1244714
0.12376088
0.1229604
0.12167488
0.11938139
0.11555947
0.1097463
0.10154674
0.090631554
0.076749869
0.059795001
0.040026052
0.016829401
0.12676102
0.1262668
0.12546882
0.12463279
0.12368044
0.1222386
0.1198001
0.11585246
0.1099356
0.1016548
0.090680447
0.076761159
0.059789081
0.040019908
0.016832497
0.12782023
0.12729424
0.12641861
0.12546226
0.12436372
0.12277083
0.12019199
0.11612285
0.11010634
0.10174821
0.090718532
0.076765262
0.059779164
0.040012231
0.016835438
0.12882822
0.12827175
0.1273218
0.12625011
0.12501092
0.12327219
0.12055763
0.11637117
0.11025895
0.10182735
0.090746094
0.076762377
0.059765369
0.040003072
0.016838222
0.12978625
0.12920055
0.12817947
0.12699725
0.12562279
0.12374331
0.12089759
0.11659795
0.11039391
0.10189262
0.090763437
0.076752717
0.059747826
0.039992489
0.01684085
0.1306956
0.13008186
0.12899272
0.12770459
0.12620009
0.12418489
0.12121251
0.11680375
0.11051172
0.10194441
0.090770884
0.076736511
0.059726675
0.039980543
0.016843322
0.13155758
0.13091696
0.12976267
0.12837308
0.12674362
0.12459761
0.12150302
0.11698916
0.11061289
0.10198318
0.090768772
0.076714002
0.059702065
0.039967299
0.016845638
0.1323735
0.13170711
0.13049047
0.1290037
0.12725421
0.1249822
0.12176977
0.11715478
0.11069795
0.10200935
0.090757455
0.076685443
0.059674152
0.039952826
0.016847799
0.13314469
0.13245359
0.13117729
0.12959745
0.12773271
0.12533942
0.12201345
0.11730121
0.11076744
0.1020234
0.090737297
0.076651097
0.0596431
0.039937195
0.016849806
0.13387248
0.13315768
0.13182429
0.13015535
0.12818
0.12567002
0.12223474
0.11742909
0.11082192
0.1020258
0.090708672
0.076611236
0.059609078
0.039920481
0.016851662
0.13455817
0.13382067
0.13243266
0.13067842
0.12859695
0.12597478
0.12243433
0.11753904
0.11086194
0.10201702
0.090671965
0.076566141
0.059572258
0.039902758
0.016853369
0.1352031
0.13444384
0.13300359
0.13116769
0.12898445
0.12625448
0.12261295
0.11763171
0.11088809
0.10199754
0.090627563
0.076516094
0.059532817
0.039884104
0.01685493
0.13580857
0.13502847
0.13353824
0.13162422
0.12934342
0.12650992
0.12277129
0.11770773
0.11090093
0.10196786
0.090575861
0.076461384
0.059490936
0.039864596
0.016856347
0.13637589
0.13557583
0.13403779
0.13204904
0.12967476
0.1267419
0.12291009
0.11776777
0.11090103
0.10192847
0.090517255
0.076402302
0.059446793
0.039844312
0.016857625
0.13690634
0.13608717
0.13450343
0.1324432
0.12997938
0.12695122
0.12303004
0.11781245
0.11088897
0.10187986
0.090452143
0.076339139
0.059400571
0.039823329
0.016858766
0.13740121
0.13656374
0.1349363
0.13280774
0.13025818
0.12713869
0.12313188
0.11784244
0.11086533
0.10182252
0.090380921
0.076272186
0.059352449
0.039801725
0.016859775
0.13786176
0.13700677
0.13533757
0.13314368
0.13051209
0.12730509
0.12321633
0.11785838
0.11083067
0.10175695
0.090303983
0.076201733
0.059302606
0.039779576
0.016860655
0.13828923
0.13741747
0.13570836
0.13345205
0.13074199
0.12745124
0.12328408
0.1178609
0.11078556
0.10168362
0.090221723
0.076128067
0.05925122
0.039756955
0.016861412
0.13868484
0.13779705
0.13604981
0.13373387
0.13094879
0.12757791
0.12333585
0.11785063
0.11073057
0.10160302
0.090134526
0.07605147
0.059198463
0.039733935
0.016862049
0.1390498
0.13814668
0.13636302
0.13399013
0.13113336
0.1276859
0.12337234
0.11782821
0.11066623
0.10151562
0.090042774
0.075972222
0.059144507
0.039710588
0.016862571
0.13938529
0.13846751
0.13664908
0.13422184
0.1312966
0.12777597
0.12339423
0.11779424
0.11059311
0.10142188
0.089946842
0.075890595
0.059089517
0.039686981
0.016862983
0.13969248
0.13876069
0.13690907
0.13442995
0.13143936
0.1278489
0.12340221
0.11774934
0.11051173
0.10132227
0.089847096
0.075806855
0.059033654
0.03966318
0.01686329
0.1399725
0.13902733
0.13714403
0.13461544
0.1315625
0.12790545
0.12339696
0.11769411
0.11042262
0.10121722
0.089743894
0.075721263
0.058977076
0.039639248
0.016863495
0.14022646
0.13926852
0.13735501
0.13477924
0.13166685
0.12794634
0.12337912
0.11762913
0.1103263
0.10110718
0.089637587
0.075634069
0.058919933
0.039615247
0.016863605
0.14045547
0.13948532
0.137543
0.13492228
0.13175325
0.12797232
0.12334936
0.11755497
0.11022326
0.10099257
0.089528514
0.075545519
0.058862369
0.039591233
0.016863624
0.14066059
0.13967879
0.13770901
0.13504546
0.13182249
0.1279841
0.12330829
0.1174722
0.110114
0.1008738
0.089417003
0.075455846
0.058804525
0.03956726
0.016863557
0.14084284
0.13984994
0.13785399
0.13514968
0.13187538
0.12798238
0.12325655
0.11738137
0.109999
0.10075128
0.089303373
0.075365278
0.058746531
0.03954338
0.016863408
0.14100326
0.13999976
0.1379789
0.13523579
0.1319127
0.12796785
0.12319474
0.117283
0.10987871
0.1006254
0.089187931
0.075274031
0.058688515
0.039519641
0.016863182
0.14114284
0.14012924
0.13808465
0.13530465
0.13193519
0.12794119
0.12312346
0.11717763
0.1097536
0.10049654
0.089070974
0.075182314
0.058630597
0.039496088
0.016862884
0.14126252
0.1402393
0.13817214
0.13535708
0.1319436
0.12790304
0.12304328
0.11706576
0.10962409
0.10036505
0.088952785
0.075090324
0.058572888
0.039472763
0.016862519
0.14136326
0.14033088
0.13824225
0.13539388
0.13193865
0.12785405
0.12295477
0.11694788
0.10949062
0.1002313
0.088833636
0.07499825
0.058515495
0.039449705
0.01686209
0.14144597
0.14040486
0.13829583
0.13541585
0.13192106
0.12779484
0.12285847
0.11682447
0.10935359
0.10009561
0.088713788
0.07490627
0.058458519
0.03942695
0.016861601
0.14151153
0.14046212
0.1383337
0.13542374
0.13189149
0.12772602
0.12275493
0.116696
0.1092134
0.099958308
0.088593489
0.074814555
0.058402052
0.039404529
0.016861059
0.14156081
0.1405035
0.13835668
0.1354183
0.13185064
0.12764818
0.12264464
0.1165629
0.10907042
0.099819712
0.088472976
0.074723263
0.05834618
0.039382475
0.016860465
0.14159463
0.14052983