/*--------------------------------*- C++ -*----------------------------------*\
| =========                 |                                                 |
| \\      /  F ield         | OpenFOAM: The Open Source CFD Toolbox           |
|  \\    /   O peration     | Version:  2506                                  |
|   \\  /    A nd           | Website:  www.openfoam.com                      |
|    \\/     M anipulation  |                                                 |
\*---------------------------------------------------------------------------*/
FoamFile
{
    version     2.0;
    format      ascii;
    arch        "LSB;label=32;scalar=64";
    class       volScalarField;
    location    "14000/water";
    object      epsilon;
}
// * * * * * * * * * * * * * * * * * * * * * * * * * * * * * * * * * * * * * //

dimensions      [0 2 -3 0 0 0 0];

internalField   nonuniform List<scalar> 
6000
(
0.00010005327
0.00010005311
0.00010005314
0.00010005327
0.00010005342
0.00010005363
0.0001000539
0.00010005427
0.00010005511
0.00010005982
0.00010010144
0.00010049509
0.00010424183
0.00014354191
0.00073980483
8.5785229e-05
8.5785556e-05
8.5786111e-05
8.5786982e-05
8.5788138e-05
8.5789633e-05
8.5791527e-05
8.5794043e-05
8.5798789e-05
8.581901e-05
8.5962524e-05
8.7071869e-05
9.5619929e-05
0.00016974081
0.0010520452
7.4267219e-05
7.4268013e-05
7.426896e-05
7.4270365e-05
7.4272213e-05
7.4274585e-05
7.4277581e-05
7.4281747e-05
7.4291154e-05
7.4336305e-05
7.4633748e-05
7.6634978e-05
9.0041817e-05
0.00019500629
0.0013270628
6.4852864e-05
6.485355e-05
6.4854661e-05
6.4856389e-05
6.4858676e-05
6.4861616e-05
6.4865387e-05
6.4871112e-05
6.4886838e-05
6.4967364e-05
6.5458677e-05
6.84101e-05
8.6285088e-05
0.00021715658
0.0015411415
5.7072087e-05
5.7072704e-05
5.7073918e-05
5.7075861e-05
5.7078448e-05
5.7081784e-05
5.7086167e-05
5.7093598e-05
5.7117581e-05
5.7242267e-05
5.7947685e-05
6.180797e-05
8.3505097e-05
0.0002348614
0.0016895689
5.0576692e-05
5.0577312e-05
5.0578592e-05
5.0580667e-05
5.0583434e-05
5.0587016e-05
5.0591882e-05
5.0601216e-05
5.0635234e-05
5.0810032e-05
5.1732149e-05
5.6406881e-05
8.1259069e-05
0.00024828861
0.0017792142
4.5104569e-05
4.5105188e-05
4.5106499e-05
4.5108638e-05
4.5111496e-05
4.5115213e-05
4.5120483e-05
4.5131961e-05
4.5177479e-05
4.5405527e-05
4.6535255e-05
5.1917397e-05
7.9376731e-05
0.00025838324
0.0018218943
4.0455895e-05
4.0456503e-05
4.045782e-05
4.0459977e-05
4.0462859e-05
4.0466628e-05
4.0472257e-05
4.0486117e-05
4.0544208e-05
4.0826355e-05
4.2148994e-05
4.8144563e-05
7.7837439e-05
0.00026629433
0.0018300463
3.6476506e-05
3.6477102e-05
3.6478406e-05
3.6480546e-05
3.6483399e-05
3.6487156e-05
3.6493116e-05
3.6509564e-05
3.6580944e-05
3.6916576e-05
3.8416896e-05
4.4958845e-05
7.6693461e-05
0.00027309124
0.0018145574
3.304611e-05
3.3046691e-05
3.304797e-05
3.3050065e-05
3.3052847e-05
3.3056537e-05
3.3062809e-05
3.3082024e-05
3.3167159e-05
3.3555102e-05
3.5220975e-05
4.2274823e-05
7.6025068e-05
0.00027965054
0.0017840405
3.0069857e-05
3.007042e-05
3.0071664e-05
3.0073692e-05
3.0076366e-05
3.0079941e-05
3.0086514e-05
3.0108667e-05
3.0207924e-05
3.0647227e-05
3.2471858e-05
4.0036357e-05
7.5917105e-05
0.00028663427
0.001744886
2.7472233e-05
2.7472777e-05
2.7473976e-05
2.7475917e-05
2.747845e-05
2.7481869e-05
2.7488744e-05
2.7514021e-05
2.7627825e-05
2.8118369e-05
3.010146e-05
3.820687e-05
7.6449192e-05
0.00029450875
0.0017016307
2.5192577e-05
2.5193098e-05
2.5194246e-05
2.5196082e-05
2.5198442e-05
2.520167e-05
2.520887e-05
2.5237507e-05
2.5366478e-05
2.5909414e-05
2.805763e-05
3.6763308e-05
7.7693097e-05
0.0003035735
0.00165739
2.3181748e-05
2.3182245e-05
2.3183333e-05
2.3185048e-05
2.3187207e-05
2.3190219e-05
2.3197794e-05
2.323011e-05
2.3375184e-05
2.3973213e-05
2.6300284e-05
3.5692527e-05
7.9712907e-05
0.00031398658
0.0016142425
2.1399629e-05
2.14001e-05
2.140112e-05
2.1402697e-05
2.140463e-05
2.1407412e-05
2.1415452e-05
2.1451882e-05
2.1614405e-05
2.2271964e-05
2.4798652e-05
3.4989203e-05
8.2565442e-05
0.00032578296
0.0015735325
1.9813231e-05
1.9813672e-05
1.9814616e-05
1.981604e-05
1.9817725e-05
1.9820279e-05
1.9828922e-05
1.9870043e-05
2.0051847e-05
2.0775227e-05
2.3529325e-05
3.4654636e-05
8.6299521e-05
0.00033888748
0.0015360911
1.8395236e-05
1.8395645e-05
1.8396506e-05
1.8397761e-05
1.8399183e-05
1.8401531e-05
1.8410972e-05
1.8457531e-05
1.8660989e-05
1.9458432e-05
2.2474895e-05
3.4695971e-05
9.095345e-05
0.00035312607
0.0015023901
1.7122886e-05
1.7123259e-05
1.7124028e-05
1.7125102e-05
1.712625e-05
1.7128438e-05
1.7138942e-05
1.7191872e-05
1.7419954e-05
1.8301752e-05
2.1622992e-05
3.5125546e-05
9.6550687e-05
0.00036823944
0.0014726449
1.5977101e-05
1.5977436e-05
1.5978105e-05
1.5978984e-05
1.5979859e-05
1.598196e-05
1.5993865e-05
1.6054312e-05
1.6310628e-05
1.7289248e-05
2.0965619e-05
3.5960111e-05
0.00010309413
0.00038390222
0.0014468811
1.4941799e-05
1.4942091e-05
1.4942652e-05
1.4943329e-05
1.494394e-05
1.4946058e-05
1.4959787e-05
1.5029124e-05
1.5317979e-05
1.6408225e-05
2.049868e-05
3.7219755e-05
0.00011055991
0.00039974861
0.00142498
1.4003348e-05
1.4003595e-05
1.4004041e-05
1.4004511e-05
1.400488e-05
1.4007153e-05
1.402322e-05
1.4103071e-05
1.442952e-05
1.5648751e-05
2.0221625e-05
3.8926414e-05
0.00011889194
0.00041540307
0.0014067117
1.3150142e-05
1.315034e-05
1.3150665e-05
1.3150927e-05
1.315109e-05
1.3153695e-05
1.3172714e-05
1.3264971e-05
1.3634892e-05
1.5003284e-05
2.0137155e-05
4.1101901e-05
0.00012799852
0.0004305123
0.0013917631
1.2372247e-05
1.2372393e-05
1.2372592e-05
1.237265e-05
1.2372659e-05
1.2375814e-05
1.2398506e-05
1.2505359e-05
1.2925534e-05
1.446641e-05
2.0250947e-05
4.3765469e-05
0.00013775238
0.00044477369
0.0013797649
1.1661123e-05
1.1661215e-05
1.1661286e-05
1.166115e-05
1.1661074e-05
1.1665043e-05
1.1692246e-05
1.1816209e-05
1.2294425e-05
1.4034634e-05
2.0571326e-05
4.6930996e-05
0.00014799478
0.00045795585
0.0013703185
1.1009401e-05
1.1009437e-05
1.1009378e-05
1.1009066e-05
1.1008994e-05
1.101409e-05
1.104677e-05
1.1190715e-05
1.1735881e-05
1.3706238e-05
2.1108871e-05
5.0604014e-05
0.00015854368
0.00046990849
0.0013630208
1.0410692e-05
1.041067e-05
1.0410485e-05
1.0410022e-05
1.0410062e-05
1.0416652e-05
1.0455917e-05
1.0623112e-05
1.1245399e-05
1.3481165e-05
2.1875889e-05
5.4778858e-05
0.00016920526
0.00048056142
0.0013574861
9.8594384e-06
9.8593586e-06
9.8590515e-06
9.8584721e-06
9.8587577e-06
9.8672657e-06
9.9143754e-06
1.0108535e-05
1.0819533e-05
1.3360938e-05
2.2885735e-05
5.9436317e-05
0.00017978706
0.00048991474
0.001353362
9.3507874e-06
9.3506504e-06
9.3502304e-06
9.3495787e-06
9.3502669e-06
9.3611826e-06
9.4175684e-06
9.6428999e-06
1.045581e-05
1.3348574e-05
2.4151946e-05
6.4542151e-05
0.00019011095
0.00049802341
0.0013503406
8.8804873e-06
8.8802951e-06
8.8797751e-06
8.879106e-06
8.8803818e-06
8.8942644e-06
8.9615474e-06
9.2228179e-06
1.0152655e-05
1.3448503e-05
2.5687206e-05
7.0046823e-05
0.00020002406
0.00050498001
0.0013481619
8.4448007e-06
8.4445568e-06
8.4439543e-06
8.4433345e-06
8.4454129e-06
8.4628989e-06
8.5429123e-06
8.8455163e-06
9.9093487e-06
1.3666457e-05
2.7502143e-05
7.588662e-05
0.00020940613
0.0005108985
0.0013466143
8.0404324e-06
8.0401416e-06
8.0394792e-06
8.0389884e-06
8.0421174e-06
8.0639293e-06
8.1587433e-06
8.508784e-06
9.7259953e-06
1.4009323e-05
2.9604058e-05
8.1986181e-05
0.00021817297
0.00051590099
0.00134553
7.664468e-06
7.6641372e-06
7.663443e-06
7.6631755e-06
7.6676392e-06
7.6945949e-06
7.8065457e-06
8.2109262e-06
9.6034999e-06
1.4484935e-05
3.1995646e-05
8.8262227e-05
0.00022627582
0.0005201082
0.0013447795
7.3143234e-06
7.3139614e-06
7.3132697e-06
7.3133352e-06
7.319458e-06
7.3524816e-06
7.4842048e-06
7.950732e-06
9.5435554e-06
1.5101802e-05
3.4673864e-05
9.4628077e-05
0.00023369766
0.00052363336
0.0013442658
6.9877006e-06
6.9873184e-06
6.9866703e-06
6.9871959e-06
6.9953468e-06
7.0354818e-06
7.1899496e-06
7.7274515e-06
9.5486283e-06
1.5868742e-05
3.7629068e-05
0.00010099842
0.00024044745
0.00052657911
0.0013439174
6.6825513e-06
6.6821625e-06
6.6816065e-06
6.6827386e-06
6.6933357e-06
6.741759e-06
6.9223234e-06
7.5407805e-06
9.6219392e-06
1.6794438e-05
4.0844541e-05
0.00010729381
0.00024655353
0.00052903629
0.0013436835
6.3970453e-06
6.396666e-06
6.3962591e-06
6.3981651e-06
6.411682e-06
6.4697206e-06
6.6801611e-06
7.3908531e-06
9.7674314e-06
1.7886905e-05
4.4296529e-05
0.00011344428
0.00025205715
0.0005310841
0.0013435288
6.1295436e-06
6.129193e-06
6.129001e-06
6.1318719e-06
6.1488438e-06
6.2179935e-06
6.4625723e-06
7.2782395e-06
9.9897188e-06
1.9152894e-05
4.7954808e-05
0.00011939198
0.0002570069
0.00053279086
0.0013434302
5.8785752e-06
5.8782757e-06
5.8783746e-06
5.8824275e-06
5.903459e-06
5.9854055e-06
6.2689287e-06
7.2039479e-06
1.0294006e-05
2.0597266e-05
5.1783773e-05
0.00012509231
0.00026145422
0.00053421506
0.001343373
5.6428172e-06
5.642595e-06
5.6430719e-06
5.6485531e-06
5.6743264e-06
5.7709696e-06
6.0988564e-06
7.1694287e-06
1.0685974e-05
2.2222385e-05
5.5743958e-05
0.00013051409
0.00026545026
0.00053540647
0.0013433493
5.4210776e-06
5.4209629e-06
5.4219174e-06
5.4291059e-06
5.4603909e-06
5.5738715e-06
5.9522322e-06
7.1765788e-06
1.1171622e-05
2.402758e-05
5.9793836e-05
0.00013563849
0.00026904378
0.00053640725
0.0013433553
5.2122808e-06
5.2123081e-06
5.2138535e-06
5.2230651e-06
5.26073e-06
5.3934608e-06
5.8291825e-06
7.2277423e-06
1.1757062e-05
2.6008735e-05
6.389172e-05
0.00014045745
0.00027228005
0.0005372529
0.0013433902
5.0154542e-06
5.0156629e-06
5.0179281e-06
5.0295196e-06
5.0745437e-06
5.2292435e-06
5.7300867e-06
7.3257059e-06
1.2448272e-05
2.8158068e-05
6.7997575e-05
0.00014497164
0.00027520025
0.00053797313
0.0013434553
4.8297171e-06
4.8301524e-06
4.8332834e-06
4.847658e-06
4.9011459e-06
5.0808782e-06
5.6555823e-06
7.4736833e-06
1.3250796e-05
3.046412e-05
7.2074576e-05
0.00014918835
0.00027784139
0.00053859275
0.0013435527
4.654271e-06
4.6549842e-06
4.6591465e-06
4.6767597e-06
4.739957e-06
4.9481738e-06
5.6065719e-06
7.6752861e-06
1.4169424e-05
3.2911987e-05
7.6090277e-05
0.00015311953
0.00028023648
0.00053913229
0.0013436849
4.4883913e-06
4.4894404e-06
4.4948214e-06
4.5161875e-06
4.5904991e-06
4.8310889e-06
5.5842316e-06
7.9344757e-06
1.5207849e-05
3.5483783e-05
8.0017361e-05
0.00015678017
0.00028241474
0.00053960873
0.0013438547
4.3314193e-06
4.3328703e-06
4.3396818e-06
4.3653818e-06
4.452392e-06
4.7297343e-06
5.5900196e-06
8.2554925e-06
1.6368332e-05
3.8159288e-05
8.3833933e-05
0.00016018692
0.00028440197
0.000540036
0.0013440645
4.1827562e-06
4.1846838e-06
4.1931653e-06
4.2238553e-06
4.3253508e-06
4.6443763e-06
5.6256833e-06
8.6427601e-06
1.7651409e-05
4.091674e-05
8.7523434e-05
0.00016335711
0.00028622083
0.00054042551
0.0013443165
4.0418571e-06
4.0443457e-06
4.0547683e-06
4.0911891e-06
4.2091847e-06
4.5754417e-06
5.693263e-06
9.1007602e-06
1.9055659e-05
4.3733692e-05
9.1074256e-05
0.00016630805
0.00028789124
0.00054078659
0.0013446125
3.9082261e-06
3.9113713e-06
3.9240414e-06
3.96703e-06
4.103797e-06
4.5235248e-06
5.7950909e-06
9.6338805e-06
2.0577553e-05
4.6587861e-05
9.447915e-05
0.00016905655
0.0002894306
0.00054112679
0.0013449537
3.781412e-06
3.7853219e-06
3.8005859e-06
3.8510876e-06
4.0091864e-06
4.4893953e-06
5.9337827e-06
1.0246237e-05
2.2211425e-05
4.9457897e-05
9.7734539e-05
0.00017161867
0.00029085417
0.00054145227
0.001345341
3.6610043e-06
3.6658014e-06
3.6840513e-06
3.7431338e-06
3.9254494e-06
4.4740067e-06
6.1122182e-06
1.0941479e-05
2.3949551e-05
5.2324022e-05
0.00010083981
0.0001740095
0.00029217525
0.00054176799
0.0013457749
3.5466302e-06
3.5524531e-06
3.5741321e-06
3.6430016e-06
3.8527838e-06
4.4785051e-06
6.3335102e-06
1.172258e-05
2.5782348e-05
5.5168499e-05
0.00010379664
0.00017624311
0.00029340545
0.00054207792
0.0013462556
3.4379516e-06
3.4449572e-06
3.470567e-06
3.5505856e-06
3.7914931e-06
4.5042378e-06
6.600958e-06
1.2591637e-05
2.7698675e-05
5.7975926e-05
0.00010660842
0.00017833256
0.00029455494
0.00054238527
0.0013467828
3.3346627e-06
3.3430286e-06
3.373137e-06
3.4658429e-06
3.7419925e-06
4.5527598e-06
6.9179827e-06
1.3549688e-05
2.9686211e-05
6.0733357e-05
0.00010927977
0.00018028983
0.00029563258
0.00054269259
0.001347356
3.2364878e-06
3.2464154e-06
3.281665e-06
3.3887949e-06
3.7048152e-06
4.6258384e-06
7.2880454e-06
1.4596555e-05
3.1731891e-05
6.3430277e-05
0.00011181611
0.00018212593
0.00029664614
0.00054300189
0.0013479746
3.1431799e-06
3.1548974e-06
3.1960156e-06
3.3195298e-06
3.6806199e-06
4.7254523e-06
7.7145467e-06
1.5730746e-05
3.382234e-05
6.6058466e-05
0.0001142234
0.00018385092
0.00029760241
0.00054331477
0.0013486378
3.0545192e-06
3.0682854e-06
3.1160958e-06
3.2582055e-06
3.6701986e-06
4.8537868e-06
8.2007091e-06
1.6949409e-05
3.5944302e-05
6.8611786e-05
0.00011650785
0.00018547397
0.00029850735
0.00054363245
0.0013493444
2.9703119e-06
2.9864203e-06
3.0418551e-06
3.2050543e-06
3.6744852e-06
5.0132196e-06
8.749448e-06
1.8248349e-05
3.8085014e-05
7.1085925e-05
0.00011867579
0.00018700343
0.00029936619
0.00054395589
0.0013500934
2.8903898e-06
2.9091733e-06
2.9732878e-06
3.1603869e-06
3.6945633e-06
5.2062982e-06
9.3632345e-06
1.9622122e-05
4.0232513e-05
7.3478131e-05
0.00012073351
0.00018844688
0.00030018354
0.00054428578
0.0013508836
2.8146096e-06
2.836446e-06
2.9104344e-06
3.1245986e-06
3.731674e-06
5.4357061e-06
1.004396e-05
2.106418e-05
4.2375858e-05
7.5786947e-05
0.00012268718
0.00018981121
0.00030096345
0.00054462265
0.0013517137
2.7428528e-06
2.7681709e-06
2.8533843e-06
3.098175e-06
3.7872216e-06
5.7042163e-06
1.0792809e-05
2.2567069e-05
4.4505284e-05
7.8011978e-05
0.00012454279
0.00019110266
0.00030170949
0.00054496683
0.0013525823
2.6750262e-06
2.7043127e-06
2.8022791e-06
3.0816992e-06
3.8627769e-06
6.0146314e-06
1.1610154e-05
2.4122664e-05
4.6612262e-05
8.0153672e-05
0.00012630605
0.0001923269
0.00030242477
0.00054531835
0.0013534881
2.6110622e-06
2.6448693e-06
2.7573159e-06
3.0758592e-06
3.960078e-06
6.3697121e-06
1.2495477e-05
2.5722422e-05
4.8689512e-05
8.221315e-05
0.00012798248
0.00019348921
0.00030311294
0.00054567957
0.0013544294
2.5509198e-06
2.5898742e-06
2.718752e-06
3.0814557e-06
4.0810245e-06
6.7720923e-06
1.3447326e-05
2.7357635e-05
5.073096e-05
8.419205e-05
0.00012957729
0.0001945943
0.00030377608
0.00054604531
0.0013554044
2.494586e-06
2.5393984e-06
2.6869098e-06
3.0994094e-06
4.2276672e-06
7.2241859e-06
1.4463314e-05
2.901966e-05
5.2731647e-05
8.6092387e-05
0.00013109537
0.00019564635
0.00030441573
0.00054641396
0.001356411
2.4420772e-06
2.4935535e-06
2.6621824e-06
3.1307692e-06
4.4021885e-06
7.728087e-06
1.5540153e-05
3.0700123e-05
5.4687628e-05
8.7916446e-05
0.0001325413
0.00019664904
0.00030503328
0.00054678554
0.001357447
2.3934419e-06
2.4524951e-06
2.6450394e-06
3.1767178e-06
4.6068758e-06
8.2854723e-06
1.6673737e-05
3.2391087e-05
5.6595865e-05
8.9666716e-05
0.00013391946
0.00019760627
0.00030563174
0.000547157
0.0013585105
2.3487625e-06
2.4164266e-06
2.6360346e-06
3.2385775e-06
4.8440833e-06
8.8975075e-06
1.7859255e-05
3.4085179e-05
5.8454116e-05
9.1345822e-05
0.00013523396
0.00019852137
0.00030621174
0.00054752791
0.0013595997
2.3081594e-06
2.3856042e-06
2.6358124e-06
3.3178121e-06
5.1161849e-06
9.5647678e-06
1.9091326e-05
3.5775671e-05
6.026082e-05
9.295645e-05
0.00013648859
0.00019939689
0.00030677291
0.0005479001
0.0013607133
2.2717941e-06
2.3603414e-06
2.6451157e-06
3.4160263e-06
5.4255161e-06
1.0287175e-05
2.0364154e-05
3.7456523e-05
6.2014999e-05
9.450129e-05
0.00013768677
0.00020023506
0.00030731594
0.00054827479
0.0013618503
2.2398737e-06
2.3410154e-06
2.6647937e-06
3.5349597e-06
5.7743068e-06
1.1063963e-05
2.167169e-05
3.9122401e-05
6.3716163e-05
9.5983027e-05
0.0001388318
0.00020103833
0.00030784121
0.00054865321
0.0013630097
2.2126561e-06
2.3280735e-06
2.6958092e-06
3.6764764e-06
6.1646077e-06
1.189366e-05
2.3007781e-05
4.0768661e-05
6.5364246e-05
9.7404398e-05
0.00013992712
0.00020180982
0.00030834746
0.00054903724
0.0013641909
2.1904555e-06
2.32204e-06
2.7392453e-06
3.8425461e-06
6.5982125e-06
1.2774116e-05
2.4366319e-05
4.2391323e-05
6.6959522e-05
9.8768018e-05
0.00014097539
0.00020254992
0.00030883711
0.00054942733
0.0013653933
2.1736491e-06
2.3235242e-06
2.7963109e-06
4.0352183e-06
7.0765796e-06
1.370254e-05
2.5741356e-05
4.398702e-05
6.8502524e-05
0.00010007635
0.0001419789
0.00020325984
0.00030931202
0.0005498234
0.0013666163
2.1626844e-06
2.3332282e-06
2.8683445e-06
4.2565878e-06
7.6007594e-06
1.4675575e-05
2.7127208e-05
4.555295e-05
6.9993983e-05
0.00010133172
0.00014293979
0.00020394109
0.0003097737
0.00055022517
0.001367859
2.1580871e-06
2.3519559e-06
2.956814e-06
4.5087507e-06
8.1713306e-06
1.5689387e-05
2.8518526e-05
4.7086835e-05
7.1434898e-05
0.00010253684
0.00014386157
0.00020459275
0.00031022401
0.00055063281
0.0013691204
2.1604699e-06
2.3806209e-06
3.0633137e-06
4.7937528e-06
8.7883501e-06
1.6739763e-05
2.9910354e-05
4.8586859e-05
7.2826359e-05
0.00010369383
0.00014474503
0.00020521727
0.00031066403
0.00055104639
0.0013703998
2.1705426e-06
2.420255e-06
3.1895557e-06
5.1135294e-06
9.4513224e-06
1.7822225e-05
3.1298155e-05
5.0051601e-05
7.4169482e-05
0.00010480454
0.00014559148
0.00020581672
0.00031109449
0.00055146583
0.0013716964
2.1891213e-06
2.4720152e-06
3.3373548e-06
5.469841e-06
1.0159187e-05
1.8932134e-05
3.2677819e-05
5.1479975e-05
7.5465399e-05
0.0001058707
0.00014640252
0.00020639289
0.00031151599
0.00055189091
0.0013730095
2.2171395e-06
2.5371895e-06
3.5086068e-06
5.8642055e-06
1.0910331e-05
2.0064795e-05
3.4045681e-05
5.2871281e-05
7.6715687e-05
0.00010689531
0.0001471778
0.00020694762
0.00031192924
0.00055232139
0.0013743381
2.2556582e-06
2.6172003e-06
3.705258e-06
6.2978318e-06
1.1702618e-05
2.1215544e-05
3.5398493e-05
5.4225045e-05
7.7921525e-05
0.00010787902
0.00014791972
0.00020748226
0.00031233486
0.00055275704
0.0013756815
2.3058757e-06
2.7136035e-06
3.9292665e-06
6.7715587e-06
1.2533435e-05
2.237983e-05
3.6733398e-05
5.554096e-05
7.9083963e-05
0.00010882301
0.00014863032
0.00020799792
0.00031273334
0.00055319761
0.0013770387
2.3691365e-06
2.8280839e-06
4.1825549e-06
7.2858019e-06
1.3399765e-05
2.3553274e-05
3.8047919e-05
5.6818973e-05
8.0204414e-05
0.00010972814
0.00014931143
0.00020849561
0.00031312504
0.00055364282
0.0013784091
2.4469374e-06
2.962444e-06
4.4669562e-06
7.8405142e-06
1.4298252e-05
2.4731724e-05
3.9339958e-05
5.8059304e-05
8.1284457e-05
0.00011059498
0.00014996475
0.00020897636
0.00031351031
0.00055409237
0.0013797918
2.5409306e-06
3.1185855e-06
4.7841526e-06
8.4351618e-06
1.5225286e-05
2.5911277e-05
4.060769e-05
5.9262023e-05
8.2324495e-05
0.00011142552
0.00015059167
0.00020944106
0.00031388943
0.00055454593
0.001381186
2.652922e-06
3.2984824e-06
5.1356124e-06
9.0687159e-06
1.6177079e-05
2.7088295e-05
4.1849527e-05
6.0427219e-05
8.3325315e-05
0.00011222156
0.00015119345
0.00020989047
0.00031426263
0.00055500319
0.0013825908
2.7848626e-06
3.5041444e-06
5.5225257e-06
9.7396651e-06
1.7149748e-05
2.8259464e-05
4.3064379e-05
6.1556066e-05
8.4286607e-05
0.00011298473
0.00015177128
0.00021032529
0.0003146301
0.00055546382
0.0013840055
2.9388313e-06
3.7375715e-06
5.9457446e-06
1.0446042e-05
1.8139384e-05
2.9421736e-05
4.4251128e-05
6.264824e-05
8.5209849e-05
0.00011371647
0.00015232629
0.00021074615
0.000314992
0.00055592748
0.0013854293
3.117007e-06
4.0006988e-06
6.4057307e-06
1.1185462e-05
1.9142101e-05
3.0572296e-05
4.5408723e-05
6.3703724e-05
8.6096483e-05
0.00011441805
0.00015285945
0.00021115361
0.00031534844
0.00055639382
0.0013868614
3.3216295e-06
4.2953338e-06
6.9025141e-06
1.1955187e-05
2.0154123e-05
3.1708778e-05
4.653713e-05
6.4721758e-05
8.6947834e-05
0.00011509069
0.00015337168
0.00021154818
0.00031569951
0.00055686249
0.001388301
3.5549458e-06
4.623088e-06
7.4356659e-06
1.2752175e-05
2.1171788e-05
3.2828885e-05
4.7635204e-05
6.5703017e-05
8.7765087e-05
0.00011573555
0.0001538638
0.00021193029
0.00031604525
0.00055733315
0.0013897474
3.8191438e-06
4.9853073e-06
8.0042875e-06
1.3573151e-05
2.2191572e-05
3.3930551e-05
4.8701865e-05
6.664833e-05
8.8549335e-05
0.00011635365
0.00015433656
0.00021230033
0.00031638571
0.00055780545
0.0013911997
4.1162744e-06
5.3830037e-06
8.6070193e-06
1.4414692e-05
2.3210257e-05
3.5012495e-05
4.9735686e-05
6.7558464e-05
8.9301629e-05
0.00011694597
0.00015479064
0.00021265864
0.00031672088
0.000558279
0.0013926573
4.4481635e-06
5.816793e-06
9.2420589e-06
1.527325e-05
2.4224618e-05
3.6072411e-05
5.0736632e-05
6.8434125e-05
9.002295e-05
0.00011751337
0.00015522666
0.00021300553
0.00031705074
0.00055875346
0.0013941193
4.8163207e-06
6.2868462e-06
9.9072149e-06
1.6145326e-05
2.5232155e-05
3.7107807e-05
5.1704679e-05
6.9276002e-05
9.071421e-05
0.00011805667
0.00015564517
0.00021334125
0.00031737525
0.00055922845
0.001395585
5.221848e-06
6.7928502e-06
1.0599935e-05
1.7027337e-05
2.6229793e-05
3.8117151e-05
5.2639823e-05
7.008476e-05
9.1376253e-05
0.00011857661
0.00015604668
0.000213666
0.00031769433
0.00055970359
0.0013970536
5.6653614e-06
7.3340016e-06
1.1317444e-05
1.7916162e-05
2.7214021e-05
3.9099331e-05
5.35421e-05
7.0861031e-05
9.2009863e-05
0.00011907386
0.00015643161
0.00021397998
0.00031800791
0.00056017851
0.0013985244
6.1469257e-06
7.9090056e-06
1.2056751e-05
1.8808049e-05
2.8182133e-05
4.0053352e-05
5.4411583e-05
7.1605413e-05
9.2615758e-05
0.00011954903
0.00015680036
0.00021428332
0.00031831587
0.0005606528
0.0013999965
6.6660261e-06
8.5161452e-06
1.2814871e-05
1.9698971e-05
2.9131839e-05
4.0978341e-05
5.5248368e-05
7.2318466e-05
9.3194596e-05
0.00012000265
0.00015715327
0.00021457612
0.00031861808
0.00056112607
0.0014014692
7.2216319e-06
9.1533905e-06
1.3587933e-05
2.0585548e-05
3.0061055e-05
4.1873533e-05
5.6052564e-05
7.3000711e-05
9.3746977e-05
0.00012043523
0.00015749064
0.00021485846
0.00031891439
0.00056159791
0.0014029418
7.8120112e-06
9.8178759e-06
1.4372269e-05
2.1464599e-05
3.096789e-05
4.2738261e-05
5.6824295e-05
7.3652629e-05
9.4273442e-05
0.0001208472
0.0001578127
0.00021513039
0.00031920464
0.00056206791
0.0014044133
8.4347092e-06
1.0506396e-05
1.5164229e-05
2.2333159e-05
3.1850645e-05
4.3571949e-05
5.7563687e-05
7.4274661e-05
9.4774474e-05
0.00012123892
0.00015811966
0.00021539189
0.00031948864
0.00056253563
0.001405883
9.0867055e-06
1.1215453e-05
1.596023e-05
2.3188487e-05
3.2707801e-05
4.4374103e-05
5.8270872e-05
7.4867209e-05
9.5250507e-05
0.00012161073
0.00015841169
0.00021564297
0.00031976616
0.00056300064
0.0014073501
9.7645042e-06
1.1941337e-05
1.6756799e-05
2.4028074e-05
3.3538021e-05
4.5144306e-05
5.8945985e-05
7.5430638e-05
9.570192e-05
0.0001219629
0.00015868889
0.00021588355
0.00032003699
0.00056346248
0.0014088137
1.0464239e-05
1.2680205e-05
1.7550616e-05
2.4849648e-05
3.4340137e-05
4.588222e-05
5.9589164e-05
7.5965277e-05
9.6129045e-05
0.00012229566
0.00015895135
0.00021611355
0.00032030086
0.00056392067
0.0014102728
1.1181784e-05
1.3428169e-05
1.8338538e-05
2.5651175e-05
3.511315e-05
4.6587581e-05
6.0200552e-05
7.6471425e-05
9.6532169e-05
0.0001226092
0.00015919912
0.00021633287
0.00032055751
0.00056437474
0.0014117266
1.1912871e-05
1.4181363e-05
1.9117626e-05
2.6430856e-05
3.5856229e-05
4.7260197e-05
6.0780303e-05
7.6949353e-05
9.6911539e-05
0.00012290366
0.00015943219
0.00021654137
0.00032080663
0.00056482417
0.0014131741
1.2653191e-05
1.4936014e-05
1.9885163e-05
2.7187122e-05
3.6568699e-05
4.7899957e-05
6.1328583e-05
7.7399311e-05
9.7267367e-05
0.00012317914
0.00015965054
0.00021673886
0.0003210479
0.00056526844
0.0014146143
1.3398498e-05
1.56885e-05
2.0638666e-05
2.7918632e-05
3.7250042e-05
4.8506824e-05
6.1845576e-05
7.7821532e-05
9.759983e-05
0.00012343572
0.00015985411
0.00021692517
0.000321281
0.00056570701
0.0014160462
1.4144688e-05
1.6435398e-05
2.1375891e-05
2.862426e-05
3.7899894e-05
4.908084e-05
6.2331492e-05
7.8216241e-05
9.7909085e-05
0.00012367345
0.00016004283
0.00021710008
0.00032150557
0.00056613932
0.0014174686
1.4887872e-05
1.7173525e-05
2.2094838e-05
2.9303085e-05
3.851803e-05
4.9622128e-05
6.2786567e-05
7.8583657e-05
9.8195265e-05
0.00012389233
0.00016021657
0.00021726334
0.00032172122
0.00056656479
0.0014188804
1.5624428e-05
1.7899961e-05
2.2793752e-05
2.9954387e-05
3.9104366e-05
5.0130891e-05
6.3211072e-05
7.8924006e-05
9.8458495e-05
0.00012409237
0.00016037522
0.00021741471
0.00032192758
0.00056698282
0.0014202805
1.6351038e-05
1.8612072e-05
2.3471113e-05
3.0577625e-05
3.9658949e-05
5.0607412e-05
6.3605319e-05
7.9237523e-05
9.8698891e-05
0.00012427355
0.00016051863
0.00021755392
0.00032212423
0.0005673928
0.0014216675
1.7064715e-05
1.9307518e-05
2.4125636e-05
3.1172433e-05
4.0181945e-05
5.1052051e-05
6.396966e-05
7.9524459e-05
9.8916571e-05
0.00012443586
0.00016064664
0.00021768068
0.00032231076
0.0005677941
0.0014230403
1.7762814e-05
1.9984256e-05
2.4756258e-05
3.1738601e-05
4.0673634e-05
5.1465247e-05
6.4304495e-05
7.9785089e-05
9.911166e-05
0.00012457928
0.0001607591
0.00021779472
0.00032248675
0.00056818609
0.0014243974
1.8443031e-05
2.0640533e-05
2.5362126e-05
3.2276065e-05
4.1134399e-05
5.184751e-05
6.4610272e-05
8.0019718e-05
9.9284297e-05
0.00012470378
0.00016085586
0.00021789575
0.00032265179
0.00056856812
0.0014257376
1.9103403e-05
2.1274883e-05
2.5942588e-05
3.2784894e-05
4.1564716e-05
5.2199421e-05
6.4887488e-05
8.0228681e-05
9.9434643e-05
0.00012480936
0.00016093676
0.00021798348
0.00032280545
0.00056893955
0.0014270593
1.9742286e-05
2.1886106e-05
2.6497177e-05
3.3265276e-05
4.1965142e-05
5.2521623e-05
6.5136691e-05
8.041235e-05
9.9562882e-05
0.00012489603
0.00016100166
0.00021805765
0.00032294732
0.00056929973
0.0014283611
2.0358345e-05
2.2473256e-05
2.7025597e-05
3.3717503e-05
4.2336309e-05
5.2814818e-05
6.5358476e-05
8.0571138e-05
9.966923e-05
0.00012496383
0.00016105045
0.00021811801
0.00032307701
0.00056964805
0.0014296415
2.0950529e-05
2.3035622e-05
2.7527709e-05
3.4141963e-05
4.2678913e-05
5.3079759e-05
6.5553485e-05
8.0705499e-05
9.9753937e-05
0.00012501283
0.00016108304
0.00021816431
0.00032319415
0.00056998388
0.0014308991
2.1518045e-05
2.3572709e-05
2.8003515e-05
3.4539129e-05
4.2993701e-05
5.3317247e-05
6.5722405e-05
8.0815926e-05
9.9817291e-05
0.00012504313
0.00016109935
0.00021819637
0.00032329838
0.00057030663
0.0014321323
2.2060342e-05
2.4084214e-05
2.8453145e-05
3.4909541e-05
4.3281468e-05
5.352812e-05
6.5865963e-05
8.0902956e-05
9.9859622e-05
0.00012505485
0.00016109937
0.00021821401
0.0003233894
0.00057061574
0.0014333396
2.2577076e-05
2.4570011e-05
2.8876843e-05
3.5253806e-05
4.3543042e-05
5.3713251e-05
6.5984924e-05
8.0967167e-05
9.9881299e-05
0.00012504819
0.00016108311
0.0002182171
0.00032346693
0.00057091069
0.0014345195
2.3068098e-05
2.5030126e-05
2.9274949e-05
3.5572579e-05
4.3779284e-05
5.3873535e-05
6.6080084e-05
8.1009177e-05
9.9882736e-05
0.00012502336
0.00016105062
0.00021820555
0.00032353073
0.00057119099
0.0014356706
2.3533419e-05
2.5464724e-05
2.9647893e-05
3.5866561e-05
4.3991073e-05
5.4009893e-05
6.6152268e-05
8.1029637e-05
9.9864389e-05
0.00012498063
0.00016100201
0.00021817933
0.00032358063
0.00057145621
0.0014367914
2.3973199e-05
2.5874087e-05
2.9996178e-05
3.6136486e-05
4.4179307e-05
5.4123256e-05
6.6202326e-05
8.1029237e-05
9.9826757e-05
0.00012492031
0.00016093743
0.00021813845
0.0003236165
0.00057170598
0.0014378807
2.4387719e-05
2.6258596e-05
3.0320369e-05
3.6383118e-05
4.4344889e-05
5.4214566e-05
6.6231124e-05
8.1008695e-05
9.9770379e-05
0.00012484277
0.00016085709
0.00021808299
0.00032363828
0.00057193998
0.001438937
2.4777367e-05
2.6618721e-05
3.0621084e-05
3.6607241e-05
4.4488731e-05
5.4284768e-05
6.6239545e-05
8.0968757e-05
9.9695833e-05
0.00012474841
0.00016076124
0.00021801307
0.00032364594
0.00057215795
0.0014399591
2.514262e-05
2.6955003e-05
3.0898984e-05
3.6809654e-05
4.4611741e-05
5.4334808e-05
6.6228481e-05
8.0910194e-05
9.9603733e-05
0.0001246377
0.00016065021
0.00021792887
0.00032363956
0.00057235972
0.001440946
2.5484029e-05
2.7268043e-05
3.1154765e-05
3.6991168e-05
4.4714826e-05
5.4365627e-05
6.6198831e-05
8.0833796e-05
9.9494727e-05
0.00012451113
0.00016052434
0.00021783065
0.00032361923
0.00057254517
0.0014418966
2.5802205e-05
2.7558488e-05
3.1389148e-05
3.7152595e-05
4.4798882e-05
5.4378158e-05
6.6151495e-05
8.074037e-05
9.9369493e-05
0.00012436924
0.00016038406
0.00021771869
0.00032358516
0.00057271426
0.00144281
2.6097807e-05
2.7827024e-05
3.1602875e-05
3.7294752e-05
4.4864798e-05
5.4373325e-05
6.608737e-05
8.0630734e-05
9.9228736e-05
0.00012421261
0.00016022982
0.00021759337
0.00032353758
0.00057286702
0.0014436853
2.6371531e-05
2.8074367e-05
3.1796699e-05
3.7418451e-05
4.4913447e-05
5.4352035e-05
6.6007352e-05
8.0505717e-05
9.9073184e-05
0.00012404186
0.00016006215
0.00021745509
0.00032347679
0.00057300356
0.0014445219
2.6624101e-05
2.8301252e-05
3.1971384e-05
3.7524499e-05
4.4945688e-05
5.4315184e-05
6.5912327e-05
8.0366152e-05
9.8903584e-05
0.00012385764
0.00015988159
0.00021730431
0.00032340317
0.00057312404
0.0014453192
2.6856261e-05
2.8508429e-05
3.2127695e-05
3.7613692e-05
4.4962363e-05
5.4263645e-05
6.580317e-05
8.0212874e-05
9.8720701e-05
0.00012366063
0.00015968873
0.00021714155
0.00032331714
0.00057322871
0.0014460769
2.706877e-05
2.8696656e-05
3.2266396e-05
3.7686818e-05
4.4964295e-05
5.4198276e-05
6.5680744e-05
8.0046717e-05
9.8525311e-05
0.00012345153
0.00015948421
0.00021696737
0.00032321916
0.00057331787
0.0014467946
2.726239e-05
2.8866695e-05
3.2388249e-05
3.7744651e-05
4.4952288e-05
5.4119912e-05
6.5545898e-05
7.9868511e-05
9.8318197e-05
0.00012323106
0.00015926868
0.00021678237
0.00032310976
0.00057339188
0.0014474721
2.7437889e-05
2.9019304e-05
3.2494005e-05
3.7787948e-05
4.4927126e-05
5.4029368e-05
6.5399463e-05
7.9679079e-05
9.8100149e-05
0.00012299997
0.00015904283
0.00021658717
0.0003229895
0.00057345116
0.0014481095
2.7596028e-05
2.9155238e-05
3.2584407e-05
3.7817452e-05
4.4889571e-05
5.3927436e-05
6.5242252e-05
7.9479234e-05
9.7871958e-05
0.000122759
0.00015880737
0.00021638244
0.00032285898
0.00057349618
0.0014487069
2.7737566e-05
2.9275244e-05
3.2660187e-05
3.783389e-05
4.4840363e-05
5.3814885e-05
6.507506e-05
7.9269777e-05
9.7634412e-05
0.00012250892
0.00015856303
0.00021616886
0.00032271883
0.00057352744
0.0014492645
2.7863249e-05
2.9380056e-05
3.2722059e-05