/*--------------------------------*- C++ -*----------------------------------*\
| =========                 |                                                 |
| \\      /  F ield         | OpenFOAM: The Open Source CFD Toolbox           |
|  \\    /   O peration     | Version:  2506                                  |
|   \\  /    A nd           | Website:  www.openfoam.com                      |
|    \\/     M anipulation  |                                                 |
\*---------------------------------------------------------------------------*/
FoamFile
{
    version     2.0;
    format      ascii;
    arch        "LSB;label=32;scalar=64";
    class       volScalarField;
    location    "14000/water";
    object      k;
}
// * * * * * * * * * * * * * * * * * * * * * * * * * * * * * * * * * * * * * //

dimensions      [0 2 -2 0 0 0 0];

internalField   nonuniform List<scalar> 
6000
(
0.0002144485
0.00021444827
0.00021444833
0.00021444852
0.00021444878
0.00021444911
0.00021444953
0.00021445001
0.00021445038
0.00021444961
0.00021444477
0.00021444847
0.00021482328
0.00022098609
0.00033298785
0.00019735372
0.00019735408
0.00019735481
0.00019735601
0.00019735759
0.00019735962
0.00019736212
0.0001973649
0.00019736678
0.00019736231
0.00019733424
0.0001972933
0.00019808165
0.00021190706
0.00042108833
0.00018260526
0.00018260625
0.00018260756
0.00018260957
0.0001826122
0.00018261554
0.00018261945
0.00018262311
0.00018262253
0.00018260174
0.00018251429
0.00018235696
0.00018354965
0.00020571076
0.0004915993
0.00016977104
0.00016977195
0.00016977358
0.00016977617
0.00016977959
0.00016978384
0.00016978847
0.00016979119
0.00016978242
0.00016972799
0.0001695392
0.00016920344
0.00017083025
0.00020141509
0.00054314021
0.00015851703
0.00015851791
0.00015851979
0.00015852287
0.0001585269
0.00015853173
0.00015853623
0.00015853548
0.0001585108
0.00015840225
0.00015807228
0.00015752308
0.00015966967
0.00019844232
0.00057747636
0.00014858047
0.00014858142
0.00014858351
0.00014858695
0.00014859139
0.00014859636
0.00014859955
0.0001485919
0.00014854197
0.00014835849
0.00014785779
0.00014709963
0.00014993181
0.00019659445
0.00059772639
0.00013975169
0.00013975271
0.00013975496
0.00013975864
0.00013976325
0.00013976781
0.00013976817
0.00013974945
0.00013966425
0.0001393877
0.00013870223
0.00013778194
0.00014154644
0.00019585229
0.00060724748
0.00013186192
0.00013186298
0.00013186534
0.00013186914
0.00013187366
0.00013187713
0.00013187282
0.00013183836
0.00013170812
0.00013132527
0.00013045854
0.00012946164
0.00013447268
0.00019626303
0.00060905754
0.00012477404
0.00012477514
0.00012477755
0.00012478136
0.00012478548
0.00012478703
0.00012477592
0.00012472085
0.00012453699
0.00012404097
0.00012301362
0.00012205827
0.00012868159
0.00019789321
0.0006056161
0.00011837572
0.00011837682
0.00011837924
0.0001183829
0.00011838626
0.00011838492
0.00011836468
0.00011828424
0.00011804014
0.00011743108
0.00011627928
0.00011550993
0.00012414935
0.00020080676
0.00059880682
0.0001125741
0.0001125752
0.00011257756
0.00011258091
0.00011258305
0.00011257774
0.00011254594
0.00011243584
0.00011212738
0.0001114124
0.00011018555
0.00010976786
0.00012085593
0.00020505367
0.00059001308
0.00010729189
0.00010729297
0.0001072952
0.00010729803
0.00010729845
0.00010728799
0.00010724223
0.00010709893
0.00010672477
0.00010591759
0.00010467621
0.00010479348
0.00011878602
0.00021066301
0.00058022149
0.0001024643
0.00010246533
0.00010246733
0.00010246942
0.00010246756
0.00010245071
0.00010238875
0.00010220964
0.0001017714
0.00010089174
9.9705638e-05
0.000100557
0.00011793046
0.00021763683
0.00057012062
9.8036637e-05
9.8037572e-05
9.8039255e-05
9.8040328e-05
9.8035582e-05
9.8011091e-05
9.7930966e-05
9.7714594e-05
9.7216801e-05
9.6289669e-05
9.5236719e-05
9.703687e-05
0.00011828673
0.00022594366
0.0005601824
9.3962451e-05
9.3963259e-05
9.3964497e-05
9.3964262e-05
9.3955981e-05
9.3922652e-05
9.3822751e-05
9.3568903e-05
9.3018884e-05
9.2074025e-05
9.1239503e-05
9.4219615e-05
0.00011985802
0.00023551194
0.0005507241
9.0202076e-05
9.020271e-05
9.0203366e-05
9.0201504e-05
9.0189027e-05
9.0145749e-05
9.0024925e-05
8.9734681e-05
8.914241e-05
8.8213812e-05
8.7690325e-05
9.20998e-05
0.00012265037
0.00024622465
0.00054195294
8.6721448e-05
8.6721856e-05
8.6721775e-05
8.6717945e-05
8.6700619e-05
8.664642e-05
8.6504047e-05
8.61798e-05
8.5557736e-05
8.4683334e-05
8.4571272e-05
9.0679902e-05
0.00012666793
0.00025791693
0.00053399692
8.3491166e-05
8.3491287e-05
8.3490304e-05
8.3484151e-05
8.3461349e-05
8.3395437e-05
8.3231463e-05
8.2876915e-05
8.2239851e-05
8.1461425e-05
8.1869885e-05
8.9969913e-05
0.00013190642
0.00027037857
0.00052692519
8.0485733e-05
8.0485502e-05
8.0483437e-05
8.0474603e-05
8.0445747e-05
8.0367548e-05
8.018253e-05
7.9802669e-05
7.9167636e-05
7.8530889e-05
7.9578989e-05
8.9986538e-05
0.00013834557
0.00028336255
0.00052076146
7.7682937e-05
7.7682283e-05
7.767895e-05
7.7667083e-05
7.7631664e-05
7.7540855e-05
7.7335982e-05
7.6937064e-05
7.6323276e-05
7.5878109e-05
7.7696612e-05
9.0751816e-05
0.00014594134
0.00029659939
0.00051549302
7.5063349e-05
7.5062196e-05
7.5057404e-05
7.5042167e-05
7.4999765e-05
7.4896302e-05
7.4673418e-05
7.4262946e-05
7.369182e-05
7.3492783e-05
7.6225917e-05
9.229105e-05
0.00015461944
0.000309816
0.00051107779
7.2609902e-05
7.2608172e-05
7.260173e-05
7.2582813e-05
7.2533118e-05
7.2417256e-05
7.2178869e-05
7.1765596e-05
7.1260831e-05
7.1367745e-05
7.5175079e-05
9.4629939e-05
0.00016427135
0.00032275576
0.00050745065
7.0307551e-05
7.0305165e-05
7.0296888e-05
7.0274015e-05
7.0216842e-05
7.0089161e-05
6.9838457e-05
6.94324e-05
6.9020131e-05
6.949887e-05
7.4557053e-05
9.7790947e-05
0.00017475428
0.00033519669
0.00050453001
6.8142984e-05
6.8139863e-05
6.8129574e-05
6.8102519e-05
6.8037823e-05
6.7899244e-05
6.7640104e-05
6.7252585e-05
6.6961603e-05
6.7885016e-05
7.438916e-05
0.00010178904
0.0001858954
0.00034696444
0.00050222457
6.6104382e-05
6.6100451e-05
6.608799e-05
6.6056581e-05
6.5984475e-05
6.5836276e-05
6.5573296e-05
6.5217006e-05
6.5079053e-05
6.6528011e-05
7.4692423e-05
0.00010662718
0.00019750038
0.00035793856
0.00050043991
6.418122e-05
6.4176406e-05
6.4161633e-05
6.4125766e-05
6.4046535e-05
6.3890369e-05
6.3628889e-05
6.3317981e-05
6.3368113e-05
6.5432644e-05
7.5490605e-05
0.00011229203
0.00020936499
0.00036805173
0.00049908424
6.2364094e-05
6.2358333e-05
6.2341135e-05
6.230078e-05
6.2214894e-05
6.2052808e-05
6.1798947e-05
6.1549161e-05
6.182618e-05
6.4606648e-05
7.680889e-05
0.00011875054
0.00022128816
0.00037728353
0.00049807291
6.064458e-05
6.0637817e-05
6.0618111e-05
6.0573325e-05
6.0481451e-05
6.031591e-05
6.0076617e-05
5.9905429e-05
6.045239e-05
6.4060643e-05
7.8672185e-05
0.00012594803
0.00023308444
0.00038565069
0.00049733132
5.9015114e-05
5.9007302e-05
5.8985044e-05
5.8935977e-05
5.8838997e-05
5.8672904e-05
5.8456016e-05
5.8382826e-05
5.9247606e-05
6.380802e-05
8.1103077e-05
0.00013380821
0.00024459408
0.00039319634
0.00049679626
5.746888e-05
5.745999e-05
5.7435175e-05
5.7382083e-05
5.7281105e-05
5.7117831e-05
5.6932149e-05
5.6978499e-05
5.8214437e-05
6.3864706e-05
8.4119509e-05
0.00014223536
0.00025568959
0.00039997992
0.00049641599
5.599973e-05
5.5989745e-05
5.596242e-05
5.590567e-05
5.5802046e-05
5.5645466e-05
5.5500841e-05
5.5690668e-05
5.7357258e-05
6.4248809e-05
8.7732327e-05
0.0001511185
0.00026627829
0.00040606902
0.00049614946
5.4602101e-05
5.4591025e-05
5.4561286e-05
5.4501369e-05
5.4396714e-05
5.4251246e-05
5.4158685e-05
5.4518612e-05
5.6682234e-05
6.4980078e-05
9.1942938e-05
0.00016033717
0.00027630116
0.00041153335
0.00049596497
5.3270953e-05
5.3258808e-05
5.3226813e-05
5.3164353e-05
5.3060564e-05
5.2931212e-05
5.2903001e-05
5.3462663e-05
5.6197343e-05
6.6079179e-05
9.6741323e-05
0.00016976801
0.000285729
0.00041644085
0.00049583865
5.2001708e-05
5.198854e-05
5.1954511e-05
5.1890276e-05
5.1789556e-05
5.1681971e-05
5.1731808e-05
5.2524225e-05
5.5912363e-05
6.7566763e-05
0.00010210471
0.00017929136
0.00029455685
0.00042085544
0.00049575297
5.0790203e-05
5.0776083e-05
5.0740313e-05
5.067523e-05
5.0580113e-05
5.050065e-05
5.0643813e-05
5.1705788e-05
5.5838827e-05
6.9462328e-05
0.00010799713
0.00018879709
0.00030279789
0.00042483586
0.00049569544
4.9632648e-05
4.9617675e-05
4.9580534e-05
4.9515698e-05
4.942908e-05
4.9384875e-05
4.9638394e-05
5.1010966e-05
5.5989917e-05
7.1782918e-05
0.00011437
0.00019818901
0.00031047772
0.00042843533
0.0004956574
4.8525586e-05
4.8509888e-05
4.8471831e-05
4.8408525e-05
4.8333699e-05
4.8332748e-05
4.8715611e-05
5.0444524e-05
5.6380275e-05
7.4541724e-05
0.0001211637
0.00020738764
0.00031762941
0.00043170149
0.00049563313
4.7465859e-05
4.74496e-05
4.7411173e-05
4.7350883e-05
4.7291578e-05
4.7342831e-05
4.7876207e-05
5.0012417e-05
5.702572e-05
7.7746676e-05
0.00012831013
0.00021633121
0.00032428982
0.00043467667
0.00049561908
4.6450583e-05
4.6433963e-05
4.6395814e-05
4.6340247e-05
4.6300671e-05
4.641414e-05
4.7121628e-05
4.9721817e-05
5.7942847e-05
8.1399163e-05
0.00013573578
0.00022497509
0.00033049682
0.00043739817
0.00049561324
4.5477121e-05
4.5460379e-05
4.5423267e-05
4.5374375e-05
4.5359268e-05
4.5546142e-05
4.6454049e-05
4.9581125e-05
5.9148508e-05
8.5493016e-05
0.00014336521
0.00023329014
0.00033628764
0.00043989867
0.00049561471
4.4543061e-05
4.4526479e-05
4.4491284e-05
4.4451289e-05
4.446598e-05
4.4738756e-05
4.5876394e-05
4.9599966e-05
6.0659159e-05
9.001388e-05
0.0001511244
0.00024126036
0.00034169779
0.00044220662
0.00049562332
4.3646195e-05
4.3630105e-05
4.359784e-05
4.3569259e-05
4.3619731e-05
4.3992365e-05
4.5392377e-05
4.9789138e-05
6.24901e-05
9.4939089e-05
0.0001589437
0.0002488802
0.00034676053
0.00044434669
0.00049563933
4.2784505e-05
4.2769292e-05
4.2741115e-05
4.2726796e-05
4.2819756e-05
4.3307822e-05
4.5006531e-05
5.0160523e-05
6.4654627e-05
0.00010023808
0.00016676014
0.00025615208
0.00035150661
0.00044634014
0.00049566327
4.1956147e-05
4.1942252e-05
4.1919486e-05
4.1922641e-05
4.2065604e-05
4.2686474e-05
4.4724243e-05
5.0726938e-05
6.7163137e-05
0.00010587334
0.00017451901
0.00026308403
0.00035596427
0.00044820531
0.00049569579
4.1159436e-05
4.1147367e-05
4.1131511e-05
4.1155759e-05
4.1357137e-05
4.2130176e-05
4.455179e-05
5.1501908e-05
7.0022258e-05
0.0001118018
0.00018217461
0.0002696879
0.00036015925
0.00044995792
0.00049573755
4.039284e-05
4.0383173e-05
4.0375928e-05
4.0425336e-05
4.0694538e-05
4.1641323e-05
4.4496353e-05
5.2499371e-05
7.3234066e-05
0.00011797662
0.00018969027
0.00027597786
0.0003641149
0.00045161147
0.00049578915
3.9654963e-05
3.9648355e-05
3.9651641e-05
3.9730781e-05
4.0078323e-05
4.1222873e-05
4.4566032e-05
5.3733287e-05
7.6795472e-05
0.00012434897
0.00019703788
0.00028196939
0.00036785236
0.00045317755
0.00049585112
3.8944544e-05
3.8941738e-05
3.8957721e-05
3.9071722e-05
3.9509355e-05
4.0878379e-05
4.4769831e-05
5.5217175e-05
8.0697846e-05
0.00013087002
0.00020419699
0.00028767849
0.00037139067
0.00045466609
0.00049592389
3.8260447e-05
3.8262283e-05
3.8293404e-05
3.8448018e-05
3.8988856e-05
4.0612025e-05
4.5117615e-05
5.6963573e-05
8.4926936e-05
0.00013749257
0.00021115369
0.00029312118
0.00037474695
0.00045608565
0.00049600779
3.7601653e-05
3.7609082e-05
3.7658086e-05
3.7859757e-05
3.851843e-05
4.0428653e-05
4.5620031e-05
5.898345e-05
8.94631e-05
0.00014417247
0.00021789951
0.0002983132
0.00037793662
0.00045744357
0.00049610301
3.6967262e-05
3.6981351e-05
3.7051327e-05
3.7307273e-05
3.8100084e-05
4.0333801e-05
4.6288383e-05
6.1285588e-05
9.4281854e-05
0.00015086966
0.0002244303
0.00030326972
0.00038097347
0.0004587462
0.00049620968
3.6356483e-05
3.6378439e-05
3.6472854e-05
3.6791149e-05
3.7736253e-05
4.033372e-05
4.7134453e-05
6.3875995e-05
9.9354677e-05
0.00015754882
0.00023074528
0.00030800525
0.00038386992
0.00045999904
0.00049632782
3.5768637e-05
3.5799814e-05
3.5922562e-05
3.6312237e-05
3.7429828e-05
4.0435399e-05
4.8170263e-05
6.6757362e-05
0.00010465003
0.00016417963
0.0002368462
0.00031253357
0.00038663711
0.00046120683
0.00049645738
3.5203153e-05
3.5245078e-05
3.5400526e-05
3.587167e-05
3.7184185e-05
4.0646561e-05
4.940778e-05
6.9928654e-05
0.00011013449
0.00017073674
0.00024273673
0.00031686761
0.00038928504
0.00046237372
0.00049659825
3.4659571e-05
3.4713957e-05
3.4907005e-05
3.5470884e-05
3.7003216e-05
4.0975655e-05
5.0858557e-05
7.338483e-05
0.00011577387
0.00017719951
0.00024842186
0.00032101952
0.00039182274
0.00046350331
0.00049675024
3.4137541e-05
3.4206315e-05
3.4442453e-05
3.5111632e-05
3.689136e-05
4.1431808e-05
5.2533328e-05
7.7116771e-05
0.00012153433
0.00018355156
0.00025390757
0.00032500063
0.00039425831
0.00046459878
0.00049691315
3.3636827e-05
3.3722154e-05
3.4007531e-05
3.4796016e-05
3.6853631e-05
4.2024759e-05
5.4441568e-05
8.1111393e-05
0.00012738327
0.00018978031
0.00025920046
0.00032882149
0.00039659908
0.00046566289
0.00049708671
3.3157312e-05
3.3261621e-05
3.3603121e-05
3.4526502e-05
3.689565e-05
4.2764745e-05
5.6591038e-05
8.5351973e-05
0.00013329012
0.00019587638
0.00026430751
0.00033249189
0.00039885167
0.0004666981
0.00049727064
3.2699001e-05
3.2825019e-05
3.3230344e-05
3.4305957e-05
3.702366e-05
4.3662352e-05
5.8987344e-05
8.9818644e-05
0.00013922684
0.00020183315
0.00026923592
0.00033602092
0.00040102206
0.00046770657
0.00049746465
3.2262029e-05
3.2412818e-05
3.2890574e-05
3.413767e-05
3.7244542e-05
4.4728315e-05
6.1633539e-05
9.4489032e-05
0.00014516825
0.00020764625
0.00027399294
0.000339417
0.00040311569
0.00046869022
0.00049766841
3.1846672e-05
3.2025663e-05
3.2585463e-05
3.4025389e-05
3.7565809e-05
4.5973271e-05
6.452981e-05
9.933898e-05
0.00015109219
0.00021331317
0.00027858579
0.00034268791
0.00040513749
0.00046965077
0.00049788159
3.1453353e-05
3.1664391e-05
3.231696e-05
3.3973344e-05
3.7995593e-05
4.740747e-05
6.7673262e-05
0.0001043433
0.00015697949
0.0002188329
0.00028302152
0.00034584086
0.00040709192
0.00047058968
0.00049810386
3.1082656e-05
3.133005e-05
3.208734e-05
3.3986284e-05
3.85426e-05
4.9040445e-05
7.1057844e-05
0.00010947652
0.00016281381
0.00022420565
0.00028730704
0.0003488826
0.00040898323
0.00047150443
0.00049833477
3.0735342e-05
3.1023912e-05
3.1899227e-05
3.4069501e-05
3.9216036e-05
5.0880662e-05
7.4674404e-05
0.00011471354
0.00016858149
0.00022943258
0.000291449
0.00035181925
0.00041081466
0.00047239506
0.0004985739
3.0412362e-05
3.0747497e-05
3.1755624e-05
3.4228853e-05
4.0025512e-05
5.2935153e-05
7.8510891e-05
0.00012003018
0.00017427127
0.00023451558
0.00029545377
0.0003546564
0.0004125891
0.00047326294
0.0004988207
3.0114877e-05
3.0502598e-05
3.1659945e-05
3.4470784e-05
4.0980894e-05
5.5209165e-05
8.2552679e-05
0.00012540361
0.000179874
0.00023945713
0.00029932738
0.00035739917
0.00041430936
0.00047410988
0.00049907467
2.9844281e-05
3.02913e-05
3.1616046e-05
3.4802324e-05
4.2092127e-05
5.7705849e-05
8.6783001e-05
0.0001308127
0.00018538238
0.00024426013
0.0003030757
0.00036005263
0.00041597749
0.00047493647
0.0004993353
2.9602222e-05
3.0116017e-05
3.1628255e-05
3.5231088e-05
4.3369016e-05
6.0425998e-05
9.1183446e-05
0.00013623817
0.00019079076
0.00024892781
0.0003067043
0.00036262126
0.00041759497
0.00047574361
0.00049960216
2.9390631e-05
2.9979517e-05
3.1701407e-05
3.5765246e-05
4.4820964e-05
6.3367883e-05
9.5734499e-05
0.00014166268
0.00019609488
0.00025346362
0.00031021838
0.00036510887
0.00041916375
0.00047653272
0.00049987494
2.9211751e-05
2.9884955e-05
3.1840872e-05
3.6413473e-05
4.6456691e-05
6.652717e-05
0.00010041606
0.00014707086
0.00020129162
0.0002578711
0.00031362278
0.00036751899
0.00042068621
0.00047730509
0.00050015335
2.9068172e-05
2.9835913e-05
3.2052582e-05
3.7184871e-05
4.8283922e-05
6.9896954e-05
0.00010520797
0.0001524492
0.00020637891
0.00026215391
0.00031692216
0.000369855
0.00042216439
0.00047806211
0.00050043717
2.8962864e-05
2.983643e-05
3.2343046e-05
3.8088861e-05
5.0309078e-05
7.3467899e-05
0.00011009038
0.00015778598
0.0002113555
0.00026631581
0.00032012124
0.00037211979
0.0004235991
0.00047880559
0.00050072625
2.8899217e-05
2.9891046e-05
3.2719367e-05
3.9135037e-05
5.2536979e-05
7.7228477e-05
0.00011504418
0.00016307112
0.00021622088
0.0002703605
0.00032322388
0.00037431558
0.00042499293
0.00047953644
0.00050102046
2.8881088e-05
3.0004837e-05
3.318923e-05
4.0332979e-05
5.4970576e-05
8.116528e-05
0.00012005126
0.00016829604
0.00022097507
0.00027429148
0.00032623364
0.00037644508
0.00042634815
0.0004802552
0.00050131959
2.8912837e-05
3.0183452e-05
3.3760891e-05
4.169204e-05
5.7610741e-05
8.5263396e-05
0.00012509465
0.00017345351
0.00022561852
0.00027811216
0.00032915388
0.0003785112
0.00042766683
0.00048096232
0.00050162343
2.8999384e-05
3.0433148e-05
3.4443123e-05
4.3221095e-05
6.0456124e-05
8.9506817e-05
0.00013015872
0.00017853752
0.00023015223
0.00028182644
0.0003319884
0.00038051453
0.00042895135
0.00048165849
0.00050193178
2.9146247e-05
3.0760819e-05
3.5245152e-05
4.4928261e-05
6.3503088e-05
9.3878841e-05
0.00013522919
0.00018354312
0.00023457744
0.00028543742
0.00033473925
0.00038245832
0.00043020339
0.00048234435
0.00050224442
2.9359593e-05
3.1174012e-05
3.6176554e-05
4.6820616e-05
6.6745742e-05
9.8362466e-05
0.00014029313
0.00018846628
0.00023889548
0.00028894793
0.00033740909
0.00038434549
0.00043142428
0.00048302037
0.00050256118
2.9646284e-05
3.1680941e-05
3.7247114e-05
4.8903907e-05
7.0176052e-05
0.00010294073
0.00014533894
0.00019330375
0.00024310778
0.00029236072
0.00034000082
0.00038617866
0.00043261524
0.00048368688
0.00050288185
3.0013913e-05
3.2290471e-05
3.8466651e-05
5.1182285e-05
7.3784037e-05
0.00010759703
0.00015035632
0.00019805314
0.00024721655
0.0002956795
0.00034251494
0.00038796052
0.00043377759
0.00048434421
0.00050320621
3.0470836e-05
3.3012086e-05
3.9844806e-05
5.3658072e-05
7.7558027e-05
0.00011231532
0.00015533616
0.00020271255
0.00025122334
0.00029890572
0.00034495507
0.00038969318
0.00043491255
0.00048499265
0.00050353407
3.1026189e-05
3.3855832e-05
4.1390794e-05
5.6331586e-05
8.1484969e-05
0.00011708036
0.00016027041
0.00020728049
0.0002551296
0.00030204158
0.00034732434
0.0003913785
0.00043602116
0.00048563247
0.00050386521
3.1689884e-05
3.4832217e-05
4.3113129e-05
5.9201026e-05
8.5550755e-05
0.00012187775
0.00016515208
0.00021175605
0.0002589373
0.00030508876
0.00034962562
0.00039301822
0.00043710433
0.00048626388
0.00050419944
3.2472586e-05
3.5952076e-05
4.501933e-05
6.2262438e-05
8.9740557e-05
0.00012669411
0.00016997514
0.00021613886
0.00026264854
0.00030804845
0.00035186157
0.00039461409
0.00043816292
0.00048688706
0.00050453656
3.3385646e-05
3.7226388e-05
4.7115629e-05
6.5509764e-05
9.4039142e-05
0.00013151704
0.00017473428
0.00022042829
0.00026626394
0.000310924
0.00035403447
0.00039616767
0.00043919771
0.00048750214
0.00050487636
3.4441001e-05
3.8666052e-05
4.9406691e-05
6.8934956e-05
9.8431156e-05
0.0001363351
0.0001794248
0.00022462385
0.00026978484
0.00031371832
0.0003561464
0.00039768038
0.00044020941
0.00048810925
0.00050521865
3.5651014e-05
4.028161e-05
5.1895363e-05
7.2528169e-05
0.0001029014
0.00014113797
0.00018404323
0.00022872692
0.00027321051
0.00031643407
0.00035819941
0.00039915352
0.00044119866
0.00048870848
0.00050556323
3.7028259e-05
4.2082934e-05
5.4582479e-05
7.6277999e-05
0.00010743501
0.00014591617
0.00018858601
0.00023273623
0.0002765436
0.00031907359
0.0003601954
0.00040058829
0.00044216605
0.0004892999
0.00050590991
3.8585234e-05
4.4078884e-05
5.7466722e-05
8.0171748e-05
0.0001120176
0.000150661
0.00019304982
0.00023665133
0.00027978657
0.00032163904
0.00036213608
0.0004019858
0.00044311209
0.00048988354
0.00050625848
4.0334015e-05
4.6276945e-05
6.0544567e-05
8.4195741e-05
0.0001166355
0.00015536507
0.00019743349
0.0002404701
0.00028294156
0.00032413249
0.00036402304
0.00040334706
0.00044403724
0.00049045945
0.00050660877
4.2285836e-05
4.8682875e-05
6.3810294e-05
8.8335592e-05
0.00012127566
0.0001600212
0.00020173351
0.00024419364
0.00028601051
0.00032655587
0.00036585776
0.00040467298
0.00044494193
0.00049102763
0.00050696057
4.4450624e-05
5.1300368e-05
6.7256084e-05
9.2576473e-05
0.00012592576
0.00016462286
0.00020594663
0.00024782325
0.00028899522
0.00032891097
0.00036764157
0.0004059644
0.00044582652
0.00049158805
0.00050731371
4.6836506e-05
5.4130773e-05
7.0872191e-05
9.6903457e-05
0.0001305746
0.00016916555
0.00021006873
0.00025135998
0.00029189745
0.00033119942
0.00036937572
0.00040722208
0.00044669133
0.00049214069
0.00050766799
4.9449306e-05
5.7172875e-05
7.464713e-05
0.00010130155
0.00013521108
0.00017364217
0.00021409929
0.00025480481
0.00029471878
0.00033342273
0.00037106133
0.00040844668
0.00044753662
0.0004926855
0.00050802323
5.2292095e-05
6.0422769e-05
7.8568011e-05
0.00010575632
0.00013982637
0.00017804517
0.00021803756
0.00025815868
0.00029746072
0.00033558228
0.00037269941
0.00040963881
0.00044836262
0.0004932224
0.00050837923
5.5364801e-05
6.387381e-05
8.2620704e-05
0.00011025328
0.00014441
0.00018236984
0.00022188284
0.00026142249
0.00030012462
0.00033767933
0.00037429089
0.00041079901
0.00044916951
0.00049375132
0.00050873582
5.8663954e-05
6.7516737e-05
8.6790452e-05
0.00011477976
0.00014895022
0.00018661254
0.00022563451
0.00026459707
0.00030271172
0.00033971502
0.00037583658
0.00041192771
0.00044995745
0.00049427214
0.00050909281
6.2182566e-05
7.1339803e-05
9.1061843e-05
0.00011932104
0.00015343816
0.00019076987
0.00022929202
0.00026768315
0.00030522312
0.00034169034
0.00037733719
0.00041302533
0.00045072652
0.00049478474
0.00050945001
6.5910241e-05
7.5329232e-05
9.5419633e-05
0.00012386176
0.00015786619
0.00019483873
0.00023285484
0.0002706814
0.00030765983
0.0003436062
0.00037879336
0.00041409217
0.00045147679
0.00049528899
0.00050980722
6.9833721e-05
7.9469737e-05
9.9845342e-05
0.00012838917
0.00016222729
0.00019881624
0.00023632249
0.00027359239
0.00031002269
0.00034546336
0.00038020561
0.00041512851
0.00045220828
0.0004957847
0.00051016427
7.3936195e-05
8.3742464e-05
0.00010432177
0.00013289129
0.00016651495
0.00020269977
0.00023969447
0.00027641657
0.00031231245
0.00034726249
0.00038157438
0.00041613452
0.00045292096
0.00049627172
0.00051052094
7.8197606e-05
8.8127423e-05
0.00010883201
0.00013735688
0.00017072319
0.00020648687
0.00024297028
0.00027915433
0.00031452972
0.00034900412
0.00038290001
0.00041711033
0.00045361476
0.00049674983
0.00051087706
8.2595728e-05
9.2603755e-05
0.00011335961
0.00014177543
0.00017484652
0.00021017527
0.0002461494
0.00028180592
0.00031667499
0.00035068869
0.00038418276
0.00041805601
0.00045428959
0.00049721881
0.00051123241
8.7106824e-05
9.7150168e-05
0.00011788865
0.00014613718
0.00017887988
0.00021376288
0.00024923132
0.00028437153
0.00031874864
0.00035231652
0.0003854228
0.00041897155
0.00045494529
0.00049767842
0.00051158678
9.1706318e-05
0.00010174533
0.00012240394
0.00015043305
0.00018281867
0.00021724775
0.0002522155
0.00028685123
0.00032075092
0.00035388782
0.00038662021
0.00041985689
0.00045558167
0.00049812839
0.00051193996
9.6369419e-05
0.00010636827
0.00012689104
0.00015465472
0.00018665871
0.00022062812
0.00025510139
0.00028924502
0.00032268199
0.00035540272
0.00038777498
0.00042071189
0.00045619851
0.00049856843
0.00051229172
0.00010107169
0.00011099866
0.00013133637
0.00015879454
0.00019039622
0.00022390236
0.00025788846
0.00029155284
0.00032454191
0.00035686122
0.00038888704
0.00042153636
0.00045679553
0.00049899823
0.00051264185
0.00010578952
0.00011561713
0.00013572726
0.00016284554
0.00019402782
0.00022706902
0.00026057621
0.00029377456
0.00032633065
0.00035826326
0.00038995622
0.00042233006
0.00045737241
0.00049941744
0.00051299008
0.00011050053
0.00012020549
0.00014005203
0.00016680146
0.00019755055
0.00023012686
0.00026316415
0.00029591001
0.00032804809
0.00035960869
0.0003909823
0.00042309268
0.00045792882
0.00049982572
0.00051333618
0.00011518387
0.00012474688
0.00014429999
0.00017065668
0.00020096184
0.00023307479
0.00026565187
0.00029795899
0.00032969408
0.0003608973
0.00039196499
0.00042382386
0.00045846434
0.00050022268
0.00051367989
0.00011982041
0.00012922589
0.00014846148
0.00017440625
0.00020425948
0.00023591194
0.00026803901
0.0002999213
0.00033126841
0.0003621288
0.00039290392
0.0004245232
0.00045897857
0.00050060791
0.00051402092
0.00012439288
0.00013362867
0.00015252787
0.00017804586
0.0002074417
0.00023863767
0.00027032532
0.00030179676
0.00033277084
0.00036330287
0.0003937987
0.00042519025
0.00045947104
0.00050098099
0.00051435901
0.00012888593
0.00013794288
0.00015649157
0.00018157182
0.00021050708
0.00024125153
0.00027251066
0.00030358522
0.00033420112
0.00036441916
0.00039464891
0.00042582453
0.00045994126
0.00050134147
0.00051469384
0.0001332861
0.00014215775
0.00016034598
0.00018498107
0.00021345458
0.00024375333
0.00027459501
0.00030528659
0.00033555902
0.0003654773
0.00039545407
0.00042642553
0.00046038874
0.0005016889
0.00051502511
0.00013758181
0.00014626402
0.0001640855
0.00018827113
0.00021628352
0.00024614309
0.00027657849
0.00030690085
0.00033684433
0.00036647693
0.00039621371
0.00042699274
0.00046081295
0.0005020228
0.00051535251
0.00014176326
0.00015025384
0.00016770547
0.00019144007
0.00021899359
0.00024842108
0.00027846139
0.00030842808
0.0003380569
0.0003674177
0.00039692737
0.00042752562
0.00046121336
0.0005023427
0.0005156757
0.00014582231
0.00015412076
0.00017120212
0.00019448652
0.00022158482
0.00025058781
0.00028024416
0.00030986846
0.00033919662
0.00036829929
0.00039759458
0.00042802364
0.00046158945
0.00050264813
0.00051599435
0.00014975239
0.00015785957
0.00017457253
0.00019740961
0.00022405755
0.00025264402
0.00028192741
0.00031122231
0.0003402635
0.00036912145
0.00039821493
0.00042848629
0.00046194068
0.0005029386
0.0005163081
0.00015354833
0.00016146625
0.00017781457
0.00020020895
0.00022641244
0.00025459066
0.00028351194
0.00031249007
0.00034125762
0.00036988398
0.00039878801
0.0004289131
0.00046226657
0.00050321365
0.00051661661
0.00015720629
0.00016493784
0.00018092681
0.00020288459
0.00022865043
0.00025642893
0.00028499872
0.00031367233
0.00034217918
0.00037058676
0.00039931352
0.00042930362
0.00046256662
0.00050347285
0.00051691953
0.00016072354
0.00016827236
0.00018390853
0.00020543701
0.00023077275
0.00025816019
0.00028638891
0.00031476984
0.0003430285
0.00037122978
0.0003997912
0.00042965746
0.00046284041
0.00050371575
0.00051721648
0.00016409841
0.00017146867
0.00018675957
0.00020786703
0.00023278085
0.00025978605
0.00028768383
0.00031578347
0.00034380603
0.00037181312
0.00040022087
0.0004299743
0.00046308755
0.00050394197
0.00051750712
0.00016733013
0.00017452643
0.00018948034
0.00021017586
0.00023467643
0.00026130826
0.00028888497
0.00031671428
0.00034451237
0.000372337
0.00040060246
0.0004302539
0.00046330769
0.00050415116
0.00051779109
0.00017041871
0.00017744595
0.00019207173
0.00021236499
0.00023646139
0.00026272875
0.00028999398
0.00031756348
0.00034514825
0.00037280175
0.00040093601
0.00043049607
0.00046350057
0.000504343
0.00051806804
0.00017336487
0.00018022816
0.00019453504
0.00021443619
0.00023813779
0.0002640496
0.00029101265
0.00031833241
0.00034571455
0.00037320782
0.00040122165
0.00043070077
0.000463666
0.00050451723
0.00051833765
0.00017616991
0.00018287448
0.00019687198
0.00021639149
0.00023970791
0.00026527305
0.00029194292
0.00031902256
0.00034621228
0.00037355581
0.00040145967
0.00043086801
0.00046380386
0.00050467364
0.00051859958
0.00017883564
0.00018538678
0.00019908456
0.00021823311
0.00024117411
0.00026640142
0.00029278684
0.00031963558
0.00034664262
0.00037384647
0.00040165043
0.00043099794
0.00046391412
0.00050481209
0.00051885354
0.00018136429
0.0001877673
0.00020117508
0.00021996349
0.00024253892
0.00026743717
0.0002935466
0.00032017321
0.00034700685
0.00037408065
0.00040179447
0.00043109081
0.00046399684
0.0005049325
0.00051909922
0.00018375847
0.00019001861
0.00020314608
0.00022158519
0.00024380497
0.00026838283
0.00029422447
0.00032063734
0.00034730641
0.00037425937
0.00040189243
0.00043114699
0.00046405219
0.00050503485
0.00051933637
0.00018602106
0.00019214352
0.00020500029
0.00022310094
0.00024497495
0.00026924102
0.00029482282
0.00032102996
0.00034754287
0.00037438376
0.00040194508
0.00043116697
0.00046408042
0.00050511921
0.00051956475
0.00018815519
0.00019414508
0.00020674063
0.00022451356
0.00024605166
0.00027001442
0.00029534409
0.00032135315
0.00034771788
0.00037445509
0.00040195332
0.00043115133
0.00046408188
0.00050518569
0.00051978414
0.00019016418
0.00019602649
0.00020837014
0.00022582596
0.00024703794
0.00027070577
0.00029579079
0.0003216091
0.00034783324
0.00037447474
0.00040191817
0.00043110079
0.00046405702
0.00050523451
0.00051999434
0.00019205151
0.0001977911
0.00020989194
0.00022704114
0.00024793668
0.00027131783
0.00029616548
0.00032180005
0.00034789081
0.00037444419
0.00040184077
0.00043101617
0.00046400639
0.00050526591
0.00052019521
0.00019382076
0.00019944235
0.00021130929
0.00022816214
0.0002487508
0.0002718534
0.00029647077
0.00032192831
0.00034789258
0.00037436507
0.00040172237
0.00043089841
0.00046393062
0.00050528025
0.00052038662
0.00019547559
0.00020098377
0.00021262545
0.00022919202
0.00024948324
0.0002723153
0.00029670929
0.00032199627
0.00034784057
0.00037423904
0.00040156431
0.00043074853
0.00046383044
0.00050527791
0.00052056847
0.00019701973
0.00020241893
0.00021384376
0.0002301339
0.00025013694
0.00027270635
0.00029688369
0.00032200634
0.00034773691
0.00037406789
0.00040136803
0.00043056764
0.00046370664
0.00050525937
0.00052074069
0.00019845693
0.00020375143
0.00021496756
0.00023099088
0.00025071486
0.00027302938
0.00029699665
0.00032196096
0.00034758376
0.00037385347
0.00040113506
0.00043035695
0.00046356011
0.00050522514
0.00052090326
0.00019979094
0.00020498488
0.00021600021
0.00023176608
0.00025121994
0.00027328719
0.00029705084
0.0003218626
0.00034738332
0.00037359768
0.00040086699
0.00043011773
0.00046339179
0.00050517579
0.00052105617
0.00020102552
0.00020612289
0.00021694505
0.00023246259
0.0002516551
0.0002734826
0.00029704891
0.00032171374
0.00034713785
0.0003733025
0.00040056548
0.00042985134
0.00046320269
0.00050511193
0.00052119946
0.00020216439
0.00020716903
0.00021780542
0.00023308351
0.00025202325
0.00027361838
0.00029699354
0.00032151688
0.0003468496