/*--------------------------------*- C++ -*----------------------------------*\
| =========                 |                                                 |
| \\      /  F ield         | OpenFOAM: The Open Source CFD Toolbox           |
|  \\    /   O peration     | Version:  2506                                  |
|   \\  /    A nd           | Website:  www.openfoam.com                      |
|    \\/     M anipulation  |                                                 |
\*---------------------------------------------------------------------------*/
FoamFile
{
    version     2.0;
    format      ascii;
    arch        "LSB;label=32;scalar=64";
    class       volScalarField;
    location    "14000/water";
    object      nut;
}
// * * * * * * * * * * * * * * * * * * * * * * * * * * * * * * * * * * * * * //

dimensions      [0 2 -1 0 0 0 0];

internalField   nonuniform List<scalar> 
6000
(
4.1367308e-05
4.1367285e-05
4.1367292e-05
4.1367317e-05
4.136735e-05
4.1367394e-05
4.1367445e-05
4.1367477e-05
4.1367269e-05
4.1365028e-05
4.1345959e-05
4.1185428e-05
3.984402e-05
3.0619188e-05
1.3489073e-05
4.0862094e-05
4.0862089e-05
4.0862128e-05
4.0862206e-05
4.086231e-05
4.0862441e-05
4.0862573e-05
4.0862525e-05
4.0861044e-05
4.0849566e-05
4.0769767e-05
4.0233638e-05
3.6930279e-05
2.3809326e-05
1.5168915e-05
4.0408426e-05
4.0408431e-05
4.0408496e-05
4.0408619e-05
4.040878e-05
4.0408965e-05
4.0409066e-05
4.0408421e-05
4.0403049e-05
4.0369314e-05
4.0169922e-05
3.9053519e-05
3.3674827e-05
1.9530254e-05
1.6389796e-05
3.9998212e-05
3.9998216e-05
3.9998298e-05
3.9998456e-05
3.9998657e-05
3.9998846e-05
3.9998699e-05
3.999645e-05
3.9982628e-05
3.9907469e-05
3.9519874e-05
3.7665236e-05
3.0439418e-05
1.6813321e-05
1.7227565e-05
3.9625122e-05
3.9625133e-05
3.9625231e-05
3.9625419e-05
3.9625638e-05
3.9625739e-05
3.9624947e-05
3.9619415e-05
3.959045e-05
3.9450123e-05
3.8807695e-05
3.6131535e-05
2.7477322e-05
1.5090355e-05
1.7763765e-05
3.9283984e-05
3.9284007e-05
3.9284119e-05
3.9284324e-05
3.9284521e-05
3.9284369e-05
3.9282279e-05
3.9270986e-05
3.9218236e-05
3.8986823e-05
3.8033859e-05
3.4524992e-05
2.4897642e-05
1.400968e-05
1.8072537e-05
3.8970512e-05
3.8970546e-05
3.8970668e-05
3.8970871e-05
3.8970973e-05
3.8970306e-05
3.8965958e-05
3.8945612e-05
3.8858945e-05
3.8510812e-05
3.7207229e-05
3.2908964e-05
2.2716803e-05
1.3360893e-05
1.8215906e-05
3.8681158e-05
3.8681199e-05
3.8681323e-05
3.8681493e-05
3.8681392e-05
3.8679823e-05
3.8671916e-05
3.8638477e-05
3.8506919e-05
3.801881e-05
3.6341286e-05
3.1331233e-05
2.0908463e-05
1.30184e-05
1.8243034e-05
3.841296e-05
3.8413006e-05
3.8413119e-05
3.8413209e-05
3.8412743e-05
3.8409742e-05
3.8396631e-05
3.8345462e-05
3.8157885e-05
3.7510375e-05
3.5450851e-05
2.9823717e-05
1.9431977e-05
1.2906145e-05
1.8191421e-05
3.816343e-05
3.8163474e-05
3.8163556e-05
3.8163497e-05
3.8162446e-05
3.8157327e-05
3.8137042e-05
3.8063106e-05
3.7808869e-05
3.6987081e-05
3.454982e-05
2.8405299e-05
1.8246291e-05
1.2977275e-05
1.8088864e-05
3.7930457e-05
3.7930491e-05
3.7930513e-05
3.793021e-05
3.7928279e-05
3.7920197e-05
3.7890497e-05
3.7788579e-05
3.7458031e-05
3.6451747e-05
3.3649968e-05
2.7085594e-05
1.7315649e-05
1.3202297e-05
1.7955551e-05
3.7712242e-05
3.7712253e-05
3.7712173e-05
3.7711499e-05
3.7708322e-05
3.7696279e-05
3.7654711e-05
3.7519641e-05
3.7104472e-05
3.5907781e-05
3.2760531e-05
2.58684e-05
1.6611172e-05
1.3561911e-05
1.7805936e-05
3.7507239e-05
3.7507212e-05
3.7506973e-05
3.7505765e-05
3.7500895e-05
3.7483757e-05
3.7427744e-05
3.725459e-05
3.6748014e-05
3.5358688e-05
3.188827e-05
2.4754408e-05
1.6110613e-05
1.4042468e-05
1.7650267e-05
3.7314115e-05
3.7314026e-05
3.7313557e-05
3.7311613e-05
3.7304527e-05
3.7281048e-05
3.7207963e-05
3.6992195e-05
3.6389e-05
3.4807726e-05
3.1037799e-05
2.3743174e-05
1.5797412e-05
1.4632945e-05
1.7495753e-05
3.7131708e-05
3.713153e-05
3.7130739e-05
3.7127817e-05
3.7117921e-05
3.7086772e-05
3.6994026e-05
3.6731629e-05
3.6028109e-05
3.4257704e-05
3.0212055e-05
2.2834479e-05
1.5659519e-05
1.5322866e-05
1.7347422e-05
3.6959006e-05
3.6958703e-05
3.6957478e-05
3.6953298e-05
3.6939934e-05
3.6899735e-05
3.6784847e-05
3.64724e-05
3.5666203e-05
3.3710866e-05
2.9412801e-05
2.2029191e-05
1.5688155e-05
1.6100896e-05
1.7208725e-05
3.6795116e-05
3.6794644e-05
3.6792855e-05
3.6787094e-05
3.6769555e-05
3.6718912e-05
3.6579574e-05
3.6214282e-05
3.5304204e-05
3.3168861e-05
2.8641157e-05
2.132974e-05
1.587657e-05
1.695401e-05
1.7081944e-05
3.6639251e-05
3.6638559e-05
3.6636051e-05
3.6628355e-05
3.6605895e-05
3.6543431e-05
3.637756e-05
3.5957252e-05
3.4942996e-05
3.2632763e-05
2.789813e-05
2.0740252e-05
1.6218811e-05
1.7867211e-05
1.6968459e-05
3.6490711e-05
3.6489738e-05
3.6486338e-05
3.6476321e-05
3.6448171e-05
3.6372563e-05
3.6178336e-05
3.5701433e-05
3.4583359e-05
3.2103134e-05
2.7185145e-05
2.0266398e-05
1.6708562e-05
1.8823778e-05
1.6868922e-05
3.6348869e-05
3.6347546e-05
3.6343063e-05
3.6330312e-05
3.62957e-05
3.6205706e-05
3.5981587e-05
3.5447046e-05
3.4225914e-05
3.1580129e-05
2.6504571e-05
1.991497e-05
1.7338099e-05
1.9805968e-05
1.6783375e-05
3.6213165e-05
3.6211415e-05
3.6205638e-05
3.6189726e-05
3.6147887e-05
3.6042373e-05
3.5787125e-05
3.5194368e-05
3.3871092e-05
3.1063631e-05
2.5860194e-05
1.9693245e-05
1.8097487e-05
2.0796033e-05
1.6711346e-05
3.6083093e-05
3.6080831e-05
3.6073537e-05
3.6054024e-05
3.6004223e-05
3.5882185e-05
3.5594869e-05
3.4943693e-05
3.3519118e-05
3.0553441e-05
2.5257606e-05
1.96082e-05
1.8974102e-05
2.1777347e-05
1.6651939e-05
3.5958194e-05
3.5955329e-05
3.5946284e-05
3.592273e-05
3.5864274e-05
3.5724854e-05
3.5404824e-05
3.4695304e-05
3.3170007e-05
3.0049498e-05
2.4704419e-05
1.9665646e-05
1.9952579e-05
2.2735414e-05
1.660395e-05
3.5838054e-05
3.5834489e-05
3.582345e-05
3.5795422e-05
3.5727676e-05
3.5570179e-05
3.521706e-05
3.444945e-05
3.2823581e-05
2.9552162e-05
2.4210265e-05
1.9869402e-05
2.1015194e-05
2.3658589e-05
1.6565971e-05
3.5722292e-05
3.5717927e-05
3.5704651e-05
3.5671733e-05
3.5594133e-05
3.5418031e-05
3.50317e-05
3.4206321e-05
3.2479493e-05
2.9062524e-05
2.3786503e-05
2.022057e-05
2.2142641e-05
2.4538397e-05
1.6536511e-05
3.5610563e-05
3.5605296e-05
3.558954e-05
3.5551342e-05
3.5463408e-05
3.5268352e-05
3.48489e-05
3.3966035e-05
3.2137286e-05
2.858275e-05
2.3445668e-05
2.0717024e-05
2.3315072e-05
2.5369467e-05
1.6514097e-05
3.5502551e-05
3.549628e-05
3.5477808e-05
3.5433974e-05
3.5335321e-05
3.5121137e-05
3.466884e-05
3.3728621e-05
3.1796463e-05
2.8116417e-05
2.3200675e-05
2.1353141e-05
2.4513224e-05
2.6149157e-05
1.6497357e-05
3.5397967e-05
3.539059e-05
3.536918e-05
3.5319398e-05
3.5209747e-05
3.4976437e-05
3.4491706e-05
3.3494016e-05
3.14566e-05
2.7668794e-05
2.3063903e-05
2.2119832e-05
2.5719465e-05
2.6877012e-05
1.6485071e-05
3.5296546e-05
3.5287966e-05
3.5263414e-05
3.5207424e-05
3.5086609e-05
3.4834344e-05
3.4317681e-05
3.3262057e-05
3.1117486e-05
2.7247025e-05
2.3046252e-05
2.3004861e-05
2.6918581e-05
2.7554165e-05
1.6476201e-05
3.5198047e-05
3.5188175e-05
3.5160297e-05
3.5097901e-05
3.4965875e-05
3.4694991e-05
3.4146934e-05
3.3032492e-05
3.0779305e-05
2.6860148e-05
2.3156314e-05
2.3993437e-05
2.8098247e-05
2.8182808e-05
1.6469894e-05
3.5102251e-05
3.5091004e-05
3.5059649e-05
3.4990715e-05
3.4847558e-05
3.4558539e-05
3.3979609e-05
3.2804987e-05
3.0442843e-05
2.6518901e-05
2.3399715e-05
2.5069006e-05
2.9249138e-05
2.8765761e-05
1.6465472e-05
3.5008959e-05
3.4996268e-05
3.4961317e-05
3.488579e-05
3.4731711e-05
3.4425177e-05
3.3815813e-05
3.2579164e-05
3.0109732e-05
2.6235322e-05
2.3778715e-05
2.6214167e-05
3.0364755e-05
2.9306158e-05
1.646241e-05
3.4917993e-05
3.4903801e-05
3.4865175e-05
3.4783085e-05
3.4618425e-05
3.4295113e-05
3.3655609e-05
3.235464e-05
2.9782687e-05
2.6022141e-05
2.4292058e-05
2.741159e-05
3.1441032e-05
2.9807246e-05
1.6460313e-05
3.4829195e-05
3.4813462e-05
3.4771128e-05
3.4682592e-05
3.4507829e-05
3.416857e-05
3.3499011e-05
3.2131095e-05
2.946573e-05
2.5892039e-05
2.4935071e-05
2.8644857e-05
3.2475854e-05
3.0272255e-05
1.6458891e-05
3.4742423e-05
3.4725129e-05
3.4679107e-05
3.4584339e-05
3.4400083e-05
3.4045774e-05
3.3345975e-05
3.1908364e-05
2.9164362e-05
2.5856855e-05
2.5699989e-05
2.9899122e-05
3.3468557e-05
3.0704313e-05
1.6457936e-05
3.465756e-05
3.4638706e-05
3.4589068e-05
3.4488387e-05
3.4295378e-05
3.3926957e-05
3.3196403e-05
3.1686556e-05
2.8885626e-05
2.5926836e-05
2.6576454e-05
3.1161547e-05
3.4419484e-05
3.1106401e-05
1.6457305e-05
3.4574503e-05
3.4554114e-05
3.4500999e-05
3.4394828e-05
3.4193938e-05
3.381234e-05
3.3050148e-05
3.1466194e-05
2.8638062e-05
2.6110006e-05
2.7552145e-05
3.2421501e-05
3.5329634e-05
3.1481314e-05
1.6456902e-05
3.4493171e-05
3.4471301e-05
3.4414911e-05
3.4303789e-05
3.409601e-05
3.3702133e-05
3.2907027e-05
3.1248389e-05
2.8431491e-05
2.6411714e-05
2.861348e-05
3.3670553e-05
3.6200408e-05
3.1831643e-05
1.6456669e-05
3.4413502e-05
3.4390234e-05
3.4330848e-05
3.4215429e-05
3.4001867e-05
3.3596524e-05
3.2766849e-05
3.1035013e-05
2.8276656e-05
2.683439e-05
2.9746329e-05
3.4902296e-05
3.7033429e-05
3.2159762e-05
1.6456572e-05
3.4335456e-05
3.4310905e-05
3.4248878e-05
3.4129939e-05
3.3911801e-05
3.3495676e-05
3.2629453e-05
3.0828885e-05
2.8184729e-05
2.7377498e-05
3.0936677e-05
3.6112067e-05
3.7830438e-05
3.2467823e-05
1.6456596e-05
3.4259011e-05
3.423333e-05
3.4169102e-05
3.4047543e-05
3.3826124e-05
3.3399718e-05
3.2494766e-05
3.0633923e-05
2.8166732e-05
2.8037691e-05
3.2171191e-05
3.7296635e-05
3.8593222e-05
3.2757762e-05
1.6456739e-05
3.4184168e-05
3.4157548e-05
3.409165e-05
3.3968498e-05
3.3745158e-05
3.3308744e-05
3.2362881e-05
3.0455255e-05
2.8232926e-05
2.8809105e-05
3.3437647e-05
3.8453878e-05
3.9323576e-05
3.3031311e-05
1.6457005e-05
3.4110952e-05
3.4083626e-05
3.4016682e-05
3.3893092e-05
3.3669236e-05
3.3222814e-05
3.2234152e-05
3.0299254e-05
2.8392247e-05
2.9683789e-05
3.4725212e-05
3.9582513e-05
4.0023269e-05
3.3290008e-05
1.6457402e-05
3.4039411e-05
3.4011658e-05
3.3944392e-05
3.3821645e-05
3.3598692e-05
3.3141955e-05
3.2109321e-05
3.0173468e-05
2.8651822e-05
3.0652196e-05
3.6024571e-05
4.0681868e-05
4.0694026e-05
3.353522e-05
1.6457942e-05
3.3969616e-05
3.3941763e-05
3.3875008e-05
3.3754507e-05
3.3533859e-05
3.3066181e-05
3.1989644e-05
3.0086448e-05
2.9016628e-05
3.170372e-05
3.7327935e-05
4.1751712e-05
4.1337508e-05
3.3768156e-05
1.6458635e-05
3.3901667e-05
3.3874095e-05
3.3808792e-05
3.369206e-05
3.3475059e-05
3.2995507e-05
3.1877041e-05
3.0047457e-05
2.9489295e-05
3.282722e-05
3.8628938e-05
4.2792135e-05
4.19553e-05
3.3989888e-05
1.6459492e-05
3.3835691e-05
3.3808835e-05
3.3746042e-05
3.3634709e-05
3.3422602e-05
3.2929992e-05
3.177424e-05
3.0066084e-05
3.0070063e-05
3.4011507e-05
3.9922491e-05
4.3803459e-05
4.2548903e-05
3.4201365e-05
1.6460521e-05
3.3771846e-05
3.3746203e-05
3.3687095e-05
3.358289e-05
3.3376778e-05
3.2869782e-05
3.1684888e-05
3.0151797e-05
3.075689e-05
3.5245747e-05
4.1204586e-05
4.4786181e-05
4.311973e-05
3.4403429e-05
1.6461728e-05
3.3710322e-05
3.3686449e-05
3.3632325e-05
3.3537056e-05
3.3337853e-05
3.2815181e-05
3.1613642e-05
3.0313473e-05
3.1545666e-05
3.6519784e-05
4.2472116e-05
4.5740923e-05
4.3669104e-05
3.4596828e-05
1.6463121e-05
3.3651343e-05
3.3629867e-05
3.3582146e-05
3.3497683e-05
3.3306072e-05
3.2766738e-05
3.156618e-05
3.055895e-05
3.2430525e-05
3.7824355e-05
4.3722699e-05
4.6668401e-05
4.4198258e-05
3.4782227e-05
1.6464701e-05
3.359517e-05
3.3576787e-05
3.3537014e-05
3.3465257e-05
3.3281661e-05
3.2725341e-05
3.1549151e-05
3.0894644e-05
3.3404222e-05
3.9151212e-05
4.4954533e-05
4.7569398e-05
4.4708341e-05
3.4960219e-05
1.6466471e-05
3.3542106e-05
3.3527584e-05
3.3497423e-05
3.3440275e-05
3.3264839e-05
3.2692339e-05
3.1570028e-05
3.1325259e-05
3.4458524e-05
4.0493157e-05
4.6166279e-05
4.8444737e-05
4.5200423e-05
3.5131334e-05
1.6468431e-05
3.3492497e-05
3.3482682e-05
3.346391e-05
3.3423238e-05
3.3255839e-05
3.2669664e-05
3.1636875e-05
3.1853609e-05
3.5584614e-05
4.1844014e-05
4.7356964e-05
4.9295265e-05
4.5675495e-05
3.5296048e-05
1.647058e-05
3.3446735e-05
3.3442548e-05
3.3437051e-05
3.3414644e-05
3.3254937e-05
3.2659941e-05
3.1758042e-05
3.2480564e-05
3.6773455e-05
4.3198551e-05
4.8525914e-05
5.0121837e-05
4.6134482e-05
3.5454788e-05
1.6472917e-05
3.3405264e-05
3.3407707e-05
3.3417461e-05
3.3414983e-05
3.3262501e-05
3.2666595e-05
3.1941808e-05
3.3205095e-05
3.8016112e-05
4.4552381e-05
4.9672697e-05
5.0925302e-05
4.6578241e-05
3.560794e-05
1.6475438e-05
3.3368581e-05
3.3378733e-05
3.3405791e-05
3.3424736e-05
3.3279046e-05
3.2693913e-05
3.2196e-05
3.402443e-05
3.9304006e-05
4.5901851e-05
5.0797078e-05
5.1706497e-05
4.7007568e-05
3.5755851e-05
1.6478139e-05
3.3337244e-05
3.3356261e-05
3.3402726e-05
3.3444374e-05
3.3305313e-05
3.2747057e-05
3.2527625e-05
3.493427e-05
4.0629106e-05
4.7243936e-05
5.1898982e-05
5.2466238e-05
4.7423204e-05
3.5898838e-05
1.6481016e-05
3.3311875e-05
3.3340983e-05
3.3408981e-05
3.347436e-05
3.3342361e-05
3.2832016e-05
3.2942547e-05
3.5929077e-05
4.1984049e-05
4.8576142e-05
5.2978465e-05
5.320532e-05
4.7825837e-05
3.6037188e-05
1.6484065e-05
3.3293162e-05
3.3333652e-05
3.3425294e-05
3.3515162e-05
3.3391667e-05
3.2955486e-05
3.3445238e-05
3.7002368e-05
4.3362197e-05
4.9896421e-05
5.4035686e-05
5.3924509e-05
4.8216109e-05
3.6171162e-05
1.6487281e-05
3.3281869e-05
3.3335085e-05
3.3452425e-05
3.3567271e-05
3.3455235e-05
3.3124674e-05
3.4038605e-05
3.8147031e-05
4.4757652e-05
5.1203102e-05
5.5070886e-05
5.4624545e-05
4.8594616e-05
3.6301001e-05
1.6490657e-05
3.3278836e-05
3.3346162e-05
3.3491147e-05
3.3631231e-05
3.3535693e-05
3.3347044e-05
3.4723924e-05
3.9355619e-05
4.6165229e-05
5.2494833e-05
5.608437e-05
5.5306138e-05
4.8961915e-05
3.6426925e-05
1.6494188e-05
3.3284986e-05
3.3367824e-05
3.3542246e-05
3.370768e-05
3.3636387e-05
3.3630014e-05
3.550085e-05
4.0620607e-05
4.7580405e-05
5.3770531e-05
5.7076491e-05
5.5969972e-05
4.9318529e-05
3.6549143e-05
1.649787e-05
3.3301328e-05
3.3401077e-05
3.3606511e-05
3.379741e-05
3.3761425e-05
3.3980637e-05
3.6367523e-05
4.1934615e-05
4.8999263e-05
5.5029342e-05
5.8047633e-05
5.6616677e-05
4.9664839e-05
3.6667084e-05
1.6501693e-05
3.3328964e-05
3.3446984e-05
3.3684743e-05
3.3901439e-05
3.3915693e-05
3.4405283e-05
3.7320727e-05
4.3290573e-05
5.0418419e-05
5.6270605e-05
5.8998201e-05
5.7246849e-05
5.0001242e-05
3.6781084e-05
1.6505652e-05
3.3369088e-05
3.3506666e-05
3.3777751e-05
3.4021093e-05
3.41048e-05
3.4909364e-05
3.8356106e-05
4.4681842e-05
5.1834962e-05
5.7493821e-05
5.9928612e-05
5.7861058e-05
5.0328144e-05
3.6891449e-05
1.6509737e-05
3.342299e-05
3.3581297e-05
3.3886368e-05
3.4158106e-05
3.4334974e-05
3.5497099e-05
3.9468404e-05
4.6102287e-05
5.3246392e-05
5.8698627e-05
6.0839295e-05
5.8459858e-05
5.0645956e-05
3.6998447e-05
1.6513939e-05
3.349206e-05
3.3672099e-05
3.4011474e-05
3.4314712e-05
3.4612881e-05
3.6171366e-05
4.0651715e-05
4.7546308e-05
5.4650571e-05
5.9884775e-05
6.1730681e-05
5.9043726e-05
5.0954638e-05
3.7102364e-05
1.6518251e-05
3.3577783e-05
3.3780336e-05
3.4154021e-05
3.4493744e-05
3.4945402e-05
3.6933615e-05
4.1899724e-05
4.900885e-05
5.6045675e-05
6.1052109e-05
6.2603192e-05
5.9613107e-05
5.1254404e-05
3.7203361e-05
1.6522664e-05
3.368174e-05
3.3907313e-05
3.4315085e-05
3.4698696e-05
3.5339359e-05
3.7783874e-05
4.3205929e-05
5.0485382e-05
5.7430151e-05
6.2200553e-05
6.3457248e-05
6.0168458e-05
5.1545758e-05
3.7301525e-05
1.6527174e-05
3.3805606e-05
3.4054374e-05
3.4495921e-05
3.4933774e-05
3.5801235e-05
3.8720812e-05
4.4563832e-05
5.1971867e-05
5.8802687e-05
6.3330094e-05
6.4293268e-05
6.0710242e-05
5.1829137e-05
3.7396965e-05
1.6531776e-05
3.3951145e-05
3.4222907e-05
3.469804e-05
3.5203885e-05
3.6336889e-05
3.9741871e-05
4.5967087e-05
5.3464722e-05
6.0162173e-05
6.4440772e-05
6.5111659e-05
6.1238792e-05
5.2104945e-05
3.748981e-05
1.6536466e-05
3.4120202e-05
3.4414347e-05
3.4923294e-05
3.5514582e-05
3.6951305e-05
4.0843432e-05
4.7409621e-05
5.4960778e-05
6.1507684e-05
6.5532668e-05
6.5912772e-05
6.1754094e-05
5.237357e-05
3.7580204e-05
1.6541241e-05
3.4314702e-05
3.4630203e-05
3.5173968e-05
3.5871944e-05
3.764839e-05
4.2021021e-05
4.8885707e-05
5.645724e-05
6.2838446e-05
6.6605891e-05
6.6696969e-05
6.2256718e-05
5.2635219e-05
3.7668253e-05
1.65461e-05
3.4536645e-05
3.487208e-05
3.5452871e-05
3.6282405e-05
3.8430823e-05
4.3269513e-05
5.0390016e-05
5.7951647e-05
6.4153814e-05
6.7660576e-05
6.7464635e-05
6.2747178e-05
5.2890112e-05
3.7754042e-05
1.6551039e-05
3.4788106e-05
3.5141726e-05
3.5763416e-05
3.6752528e-05
3.9299991e-05
4.4583342e-05
5.1917633e-05
5.9441833e-05
6.5453259e-05
6.8696889e-05
6.821617e-05
6.3225932e-05
5.3138478e-05
3.7837651e-05
1.6556054e-05
3.5071238e-05
3.5441091e-05
3.6109672e-05
3.7288749e-05
4.0255973e-05
4.5956692e-05
5.3464065e-05
6.0925905e-05
6.6736353e-05
6.9714973e-05
6.8951469e-05
6.3693445e-05
5.3380568e-05
3.7919174e-05
1.6561141e-05
3.5388288e-05
3.5772397e-05
3.6496382e-05
3.7897111e-05
4.1297604e-05
4.7383664e-05
5.5025225e-05
6.2402199e-05
6.8002741e-05
7.0714982e-05
6.9671015e-05
6.4150025e-05
5.361659e-05
3.7998701e-05
1.6566298e-05
3.5741622e-05
3.6138223e-05
3.6928929e-05
3.8583001e-05
4.2422579e-05
4.8858417e-05
5.6597411e-05
6.3869257e-05
6.925213e-05
7.1697105e-05
7.0375278e-05
6.4595973e-05
5.3846733e-05
3.8076305e-05
1.6571521e-05
3.6133765e-05
3.6541598e-05
3.7413245e-05
3.9350923e-05
4.3627608e-05
5.0375275e-05
5.8177279e-05
6.5325802e-05
7.0484296e-05
7.2661567e-05
7.1064695e-05
6.5031584e-05
5.4071173e-05
3.8152051e-05
1.6576807e-05
3.6567456e-05
3.6986083e-05
3.795566e-05
4.0204315e-05
4.4908587e-05
5.1928805e-05
5.9761825e-05
6.6770729e-05
7.1699052e-05
7.3608216e-05
7.1739648e-05
6.5457158e-05
5.4290101e-05
3.8226001e-05
1.6582153e-05
3.7045714e-05
3.7475849e-05
3.8562705e-05
4.1145428e-05
4.6260786e-05
5.3513871e-05
6.1348345e-05
6.8203058e-05
7.2896226e-05
7.4537352e-05
7.2400488e-05
6.5872957e-05
5.4503694e-05
3.8298215e-05
1.6587554e-05
3.7571927e-05
3.801571e-05
3.9240863e-05
4.2175265e-05
4.7679028e-05
5.512566e-05
6.2934404e-05
6.9621919e-05
7.4075703e-05
7.5449302e-05
7.3047531e-05
6.6279229e-05
5.4712111e-05
3.836875e-05
1.6593007e-05
3.8149928e-05
3.8611126e-05
3.9996311e-05
4.3293591e-05
4.9157865e-05
5.67597e-05
6.4517822e-05
7.1026559e-05
7.5237344e-05
7.6344348e-05
7.3681077e-05
6.6676217e-05
5.4915499e-05
3.8437653e-05
1.659851e-05
3.8784071e-05
3.9268137e-05
4.0834652e-05
4.4498996e-05
5.0691725e-05
5.8411855e-05
6.6096646e-05
7.2416308e-05
7.6380935e-05
7.7222735e-05
7.4301401e-05
6.7064163e-05
5.5113999e-05
3.8504971e-05
1.6604058e-05
3.9479284e-05
3.9993246e-05
4.1760671e-05
4.5789001e-05
5.2275039e-05
6.0078317e-05
6.7669105e-05
7.3790543e-05
7.7506502e-05
7.8084769e-05
7.4908766e-05
6.7443291e-05
5.5307745e-05
3.8570746e-05
1.6609648e-05
4.0241073e-05
4.0793222e-05
4.277813e-05
4.7160209e-05
5.3902335e-05
6.1755582e-05
6.9233596e-05
7.5148732e-05
7.861413e-05
7.8930706e-05
7.5503425e-05
6.7813807e-05
5.5496861e-05
3.8635017e-05
1.6615278e-05
4.1075467e-05
4.1674861e-05
4.3889625e-05
4.8608466e-05
5.5568326e-05
6.3440455e-05
7.0788712e-05
7.6490271e-05
7.970375e-05
7.976075e-05
7.608563e-05
6.8175909e-05
5.568146e-05
3.8697818e-05
1.6620943e-05
4.1988894e-05
4.2644696e-05
4.5096494e-05
5.0129034e-05
5.7267948e-05
6.5129995e-05
7.2333109e-05
7.7814696e-05
8.0775554e-05
8.0575103e-05
7.6655616e-05
6.8529783e-05
5.5861651e-05
3.8759183e-05
1.662664e-05
4.2987977e-05
4.3708693e-05
4.6398793e-05
5.1716756e-05
5.899639e-05
6.6821488e-05
7.3865564e-05
7.9121697e-05
8.1829675e-05
8.1373968e-05
7.7213601e-05
6.8875603e-05
5.6037534e-05
3.8819141e-05
1.6632367e-05
4.4079254e-05
4.4871951e-05
4.779534e-05
5.3366214e-05
6.0749132e-05
6.8512496e-05
7.5384936e-05
8.0410799e-05
8.2866162e-05
8.215754e-05
7.7759792e-05
6.9213531e-05
5.62092e-05
3.8877718e-05
1.6638121e-05
4.5268841e-05
4.6138427e-05
4.9283794e-05
5.5071854e-05
6.2521919e-05
7.0200697e-05
7.6890126e-05
8.168191e-05
8.3885075e-05
8.2926003e-05
7.8294382e-05
6.9543717e-05
5.6376734e-05
3.8934938e-05
1.6643897e-05
4.6562065e-05
4.7510711e-05
5.0860777e-05
5.6828095e-05
6.4310755e-05
7.1883944e-05
7.8380189e-05
8.2934902e-05
8.4886482e-05
8.3679524e-05
7.881755e-05
6.9866302e-05
5.6540214e-05
3.8990822e-05
1.6649692e-05
4.7963091e-05
4.898987e-05
5.2522023e-05
5.8629433e-05
6.611195e-05
7.3560263e-05
7.9854103e-05
8.4169553e-05
8.5870446e-05
8.441826e-05
7.9329461e-05
7.0181413e-05
5.6699712e-05
3.904539e-05
1.6655505e-05
4.9474585e-05
5.0575357e-05
5.4262525e-05
6.0470457e-05
6.7921953e-05
7.5227696e-05
8.1311378e-05
8.5385679e-05
8.6837018e-05
8.514235e-05
7.9830267e-05
7.0489166e-05
5.6855291e-05
3.9098657e-05
1.6661331e-05
5.1097447e-05
5.2264995e-05
5.6076699e-05
6.2345961e-05
6.9737499e-05
7.6884287e-05
8.275139e-05
8.6583107e-05
8.7786239e-05
8.5851922e-05
8.0320105e-05
7.0789669e-05
5.7007008e-05
3.9150638e-05
1.6667168e-05
5.2830627e-05
5.405503e-05
5.7958493e-05
6.4250841e-05
7.1555357e-05
7.8528642e-05
8.4173529e-05
8.7761659e-05
8.8718136e-05
8.6547084e-05
8.0799096e-05
7.1083016e-05
5.7154916e-05
3.9201344e-05
1.6673013e-05
5.4671067e-05
5.5940249e-05
5.9901549e-05
6.6180205e-05
7.3372292e-05
8.0159469e-05
8.5577219e-05
8.8921155e-05
8.9632723e-05
8.722793e-05
8.1267348e-05
7.1369292e-05
5.7299058e-05
3.9250784e-05
1.6678861e-05
5.6613737e-05
5.7914116e-05
6.1899205e-05
6.8129127e-05
7.5185729e-05
8.1775505e-05
8.69619e-05
9.0061407e-05
9.0529993e-05
8.7894535e-05
8.1724954e-05
7.1648568e-05
5.7439474e-05
3.9298966e-05
1.6684712e-05
5.8651794e-05
5.9968963e-05
6.394458e-05
7.0092804e-05
7.6993291e-05
8.3375551e-05
8.8327027e-05
9.1182216e-05
9.1409927e-05
8.8546956e-05
8.2171989e-05
7.1920908e-05
5.7576195e-05
3.9345893e-05
1.669056e-05
6.0776758e-05
6.2096063e-05
6.6030523e-05
7.206707e-05
7.8792722e-05
8.4958458e-05
8.9672058e-05
9.2283369e-05
9.2272482e-05
8.918523e-05
8.2608514e-05
7.2186362e-05
5.7709247e-05
3.9391569e-05
1.6696404e-05
6.2978723e-05
6.4286006e-05
6.815019e-05
7.4047906e-05
8.0581869e-05
8.6523118e-05
9.0996457e-05
9.3364637e-05
9.3117595e-05
8.9809374e-05
8.3034575e-05
7.244497e-05
5.7838649e-05
3.9435992e-05
1.6702239e-05
6.5246815e-05
6.652898e-05
7.0296791e-05
7.6031438e-05
8.2358667e-05
8.8068456e-05
9.2299682e-05
9.4425776e-05
9.3945181e-05
9.0419386e-05
8.34502e-05
7.2696759e-05
5.7964414e-05
3.9479162e-05
1.6708064e-05
6.7569581e-05
6.8814961e-05
7.2463619e-05
7.8013916e-05
8.4121134e-05
8.9593427e-05
9.358119e-05
9.5466521e-05
9.4755135e-05
9.1015243e-05
8.3855399e-05
7.2941747e-05
5.8086548e-05
3.9521072e-05
1.6713873e-05
6.9935337e-05
7.113391e-05
7.4644092e-05
7.999171e-05
8.5867351e-05
9.1097006e-05
9.4840431e-05
9.6486588e-05
9.5547327e-05
9.15969e-05
8.4250169e-05
7.3179938e-05
5.8205051e-05
3.9561716e-05
1.6719665e-05
7.2332485e-05
7.3475954e-05
7.6831789e-05
8.1961295e-05
8.7595461e-05
9.2578188e-05
9.607685e-05
9.7485676e-05
9.6321605e-05
9.2164291e-05
8.4634489e-05
7.3411326e-05
5.8319916e-05
3.9601084e-05
1.6725435e-05
7.4749774e-05
7.5831543e-05
7.902049e-05
8.3919255e-05
8.9303658e-05
9.4035985e-05
9.7289883e-05
9.8463466e-05
9.7077797e-05
9.2717333e-05
8.5008318e-05
7.3635893e-05
5.8431129e-05
3.9639164e-05
1.6731181e-05
7.7176505e-05
7.8191581e-05
8.1204209e-05
8.5862278e-05
9.0990183e-05
9.5469425e-05
9.8478966e-05
9.9419621e-05
9.7815707e-05
9.3255918e-05
8.5371605e-05
7.3853609e-05
5.8538672e-05
3.9675942e-05
1.6736897e-05
7.9602683e-05
8.054752e-05
8.337724e-05
8.7787165e-05
9.2653329e-05
9.6877556e-05
9.9643531e-05
0.00010035379
9.8535126e-05
9.3779925e-05
8.5724278e-05
7.4064434e-05
5.8642517e-05
3.9711399e-05
1.6742581e-05
8.2019123e-05
8.2891442e-05
8.5534183e-05
8.9690835e-05
9.4291434e-05
9.8259441e-05
0.00010078301
0.00010126562
9.9235825e-05
9.4289211e-05
8.6066253e-05
7.4268317e-05
5.8742633e-05
3.9745518e-05
1.6748228e-05
8.4417497e-05
8.5216097e-05
8.7669978e-05
9.1570341e-05
9.590289e-05
9.9614169e-05
0.00010189684
0.00010215475
9.9917562e-05
9.4783623e-05
8.6397434e-05
7.4465196e-05
5.883898e-05
3.9778276e-05
1.6753834e-05
8.6790361e-05
8.751493e-05
8.9779928e-05
9.3422878e-05
9.7486146e-05
0.00010094085
0.00010298448
0.00010302079
0.00010058009
9.5262992e-05
8.6717709e-05
7.4655002e-05
5.8931516e-05
3.9809649e-05
1.6759394e-05
8.913114e-05
8.9782088e-05
9.1859719e-05
9.5245797e-05
9.9039717e-05
0.00010223864
0.00010404538
0.0001038634
0.00010122315
9.572714e-05
8.702696e-05
7.4837655e-05
5.9020191e-05
3.9839612e-05
1.6764905e-05
9.1434101e-05
9.2012399e-05
9.3905428e-05
9.7036621e-05
0.00010056219
0.00010350672
0.00010507903
0.0001046822
0.00010184648
9.6175884e-05
8.7325058e-05
7.5013072e-05
5.9104952e-05
3.9868138e-05
1.6770361e-05
9.3694305e-05
9.4201356e-05
9.591353e-05
9.8793054e-05
0.00010205223
0.0001047443
0.00010608494
0.00010547687
0.00010244984
9.6609038e-05
8.7611871e-05
7.518116e-05
5.9185742e-05
3.9895197e-05
1.6775757e-05
9.590755e-05
9.6345075e-05
9.7880894e-05
0.00010051299
0.00010350859
0.00010595068
0.00010706265
0.00010624707
0.00010303298
9.7026415e-05
8.7887263e-05
7.5341826e-05
5.9262502e-05
3.992076e-05
1.6781088e-05
9.8070316e-05
9.844026e-05
9.9804775e-05
0.00010219453
0.00010493012
0.00010712516
0.00010801173
0.00010699249
0.00010359566
9.7427835e-05
8.8151097e-05
7.5494974e-05
5.9335171e-05
3.9944795e-05
1.6786349e-05
0.0001001797
0.00010048416
0.0001016828
0.00010383595
0.00010631577
0.00010826715
0.0001089318
0.00010771287
0.00010413766
9.7813127e-05
8.8403241e-05
7.5640507e-05
5.9403687e-05
3.9967274e-05
1.6791534e-05
0.00010223334
0.00010247451
0.00010351296
0.00010543577
0.00010766461
0.0001093761
0.00010982252
0.00010840797
0.00010465881
9.818213e-05
8.8643568e-05
7.5778332e-05
5.9467988e-05
3.9988164e-05
1.6796639e-05
0.0001042294
0.0001044095
0.00010529358
0.00010699269
0.0001089758
0.00011045151
0.0001106836
0.00010907757
0.00010515892
9.8534702e-05
8.887196e-05
7.590836e-05
5.9528018e-05
4.0007437e-05
1.6801656e-05
0.00010616647
0.00010628774
0.00010702329
0.0001085056
0.00011024864
0.000111493
0.00011151481
0.00010972152
0.00010563787
9.8870722e-05
8.9088314e-05
7.6030509e-05
5.9583719e-05
4.0025065e-05
1.6806581e-05
0.00010804351
0.00010810819
0.00010870104
0.00010997361
0.00011148251
0.00011250021
0.00011231596
0.00011033969
0.00010609554
9.9190091e-05
8.9292538e-05
7.6144704e-05
5.9635041e-05
4.0041022e-05
1.6811408e-05
0.00010985986
0.00010987012
0.00011032602
0.000111396
0.00011267694
0.0001134729
0.00011308692
0.00011093202
0.00010653188
9.9492738e-05
8.9484561e-05
7.6250885e-05
5.968194e-05
4.0055285e-05
1.6816131e-05
0.00011161513
0.00011157312
0.00011189769
0.00011277223
0.00011383156
0.00011441088
0.00011382763
0.00011149846
0.00010694685
9.9778621e-05
8.9664334e-05
7.6349001e-05
5.9724379e-05
4.0067835e-05
1.6820744e-05
0.00011330922
0.00011321701
0.00011341572
0.00011410193
0.00011494612
0.00011531405
0.00011453808
0.00011203905
0.00010734046
0.00010004773
8.9831826e-05
7.6439019e-05
5.976233e-05
4.0078657e-05
1.6825242e-05
0.00011494224
0.00011480184
0.00011487998
0.00011538489
0.00011602047
0.00011618237
0.00011521831
0.00011255384
0.00010771277
0.00010030008
8.9987034e-05
7.6520922e-05
5.9795774e-05
4.0087738e-05
1.6829619e-05
0.0001165145
0.00011632784
0.00011629055
0.00011662105
0.00011705456
0.00011701589
0.00011586844
0.00011304297
0.00010806386
0.00010053574
9.0129982e-05
7.6594711e-05
5.9824704e-05
4.0095074e-05
1.6833871e-05
0.00011802648
0.00011779545
0.00011764763
0.00011781047
0.00011804845
0.00011781473
0.00011648862
0.0001135066
0.00010839389
0.00010075479
9.0260717e-05
7.6660404e-05
5.9849125e-05
4.0100663e-05
1.6837992e-05
0.00011947882
0.00011920521
0.00011895161
0.00011895336
0.00011900231
0.00011857907
0.00011707908
0.00011394493
0.00010870302
0.00010095736
9.0379319e-05
7.6718043e-05
5.9869054e-05
4.0104511e-05
1.6841978e-05
0.00012087228
0.00012055782
0.00012020297
0.00012005002
0.00011991636
0.00011930917
0.00011764008
0.00011435824
0.00010899147
0.00010114361
9.0485891e-05
7.6767688e-05
5.988452e-05
4.0106628e-05
1.6845825e-05
0.00012220772
0.00012185407
0.00012140232
0.00012110087
0.00012079093
0.00012000534
0.00011817195
0.00011474682
0.0001092595
0.00010131374
9.0580569e-05
7.680942e-05
5.9895567e-05
4.0107032e-05
1.6849529e-05
0.0001234861
0.00012309485
0.00012255038
0.00012210642
0.00012162642
0.00012066795
0.00011867505
0.00011511102
0.0001095074
0.00010146798
9.0663514e-05
7.6843341e-05
5.9902251e-05
4.0105746e-05
1.6853085e-05
0.00012470847
0.00012428115
0.00012364794
0.00012306726
0.00012242331
0.00012129744
0.00011914981
0.00011545122
0.00010973551
0.00010160659
9.0734914e-05
7.6869576e-05
5.9904643e-05
4.01028e-05
1.6856493e-05
0.00012587591
0.000125414
0.00012469585
0.00012398405
0.00012318213
0.00012189429
0.00011959667
0.00011576786
0.0001099442
0.00010172986
9.0794985e-05
7.6888268e-05
5.9902826e-05
4.0098229e-05
1.6859748e-05
0.0001269896
0.00012649449
0.00012569507
0.00012485753
0.00012390347
0.00012245902
0.00012001613
0.00011606137
0.00011013385
0.00010183811
9.0843966e-05
7.6899578e-05
5.9896896e-05
4.0092074e-05
1.686285e-05
0.00012805072
0.00012752379
0.00012664657
0.00012568849
0.00012458798
0.00012299222
0.00012040873
0.00011633225
0.00011030489
0.00010193169
9.088212e-05
7.6903689e-05
5.9886961e-05
4.0084383e-05
1.6865796e-05
0.00012906053
0.00012850306
0.0001275514
0.00012647777
0.00012523635
0.00012349448
0.00012077502
0.00011658101
0.00011045777
0.00010201097
9.0909731e-05
7.6900798e-05
5.9873141e-05
4.0075208e-05
1.6868586e-05
0.00013002028
0.00012943353
0.00012841061
0.00012722626
0.00012584932
0.00012396645
0.0001211156
0.0001168082
0.00011059298
0.00010207635
9.0927106e-05
7.6891121e-05
5.9855566e-05
4.0064606e-05
1.6871219e-05
0.00013093128
0.00013031643
0.00012922532
0.00012793487
0.00012642766
0.00012440882
0.00012143109
0.00011701438
0.000110711
0.00010212824
9.0934566e-05
7.6874886e-05
5.9834377e-05
4.0052638e-05
1.6873695e-05
0.00013179481
0.00013115304
0.00012999666
0.00012860457
0.00012697217
0.00012482229
0.00012172212
0.00011720012
0.00011081235
0.00010216708
9.093245e-05
7.6852336e-05
5.9809723e-05
4.003937e-05
1.6876015e-05
0.00013261221
0.00013194461
0.00013072578
0.00012923633
0.00012748368
0.00012520758
0.00012198936
0.00011736604