/*--------------------------------*- C++ -*----------------------------------*\
| =========                 |                                                 |
| \\      /  F ield         | OpenFOAM: The Open Source CFD Toolbox           |
|  \\    /   O peration     | Version:  2506                                  |
|   \\  /    A nd           | Website:  www.openfoam.com                      |
|    \\/     M anipulation  |                                                 |
\*---------------------------------------------------------------------------*/
FoamFile
{
    version     2.0;
    format      ascii;
    arch        "LSB;label=32;scalar=64";
    class       volScalarField;
    location    "14000/water";
    object      T;
}
// * * * * * * * * * * * * * * * * * * * * * * * * * * * * * * * * * * * * * //

dimensions      [0 0 0 1 0 0 0];

internalField   nonuniform List<scalar> 
6000
(
333.15
333.15
333.15
333.15
333.15
333.15
333.15
333.15
333.15
333.15
333.15
333.14998
333.14989
333.14924
333.14256
333.15
333.15
333.15
333.15
333.15
333.15
333.15
333.15
333.15
333.15
333.14999
333.14994
333.14968
333.14816
333.13666
333.15
333.15
333.15
333.15
333.15
333.15
333.15
333.15
333.15
333.14999
333.14997
333.14987
333.14939
333.14689
333.13171
333.15
333.15
333.15
333.15
333.15
333.15
333.15
333.15
333.15
333.14999
333.14994
333.14976
333.14903
333.14547
333.12738
333.15
333.15
333.15
333.15
333.15
333.15
333.15
333.15
333.14999
333.14997
333.1499
333.14963
333.1486
333.14395
333.12351
333.15
333.15
333.15
333.15
333.15
333.15
333.15
333.15
333.14999
333.14996
333.14985
333.14947
333.14812
333.14237
333.11997
333.15
333.15
333.15
333.15
333.15
333.15
333.15
333.14999
333.14998
333.14994
333.14978
333.14929
333.1476
333.14073
333.11672
333.15
333.15
333.15
333.15
333.15
333.15
333.15
333.14999
333.14997
333.14991
333.1497
333.14909
333.14703
333.13905
333.11371
333.15
333.15
333.15
333.15
333.15
333.15
333.15
333.14999
333.14996
333.14987
333.14961
333.14886
333.14643
333.13736
333.11091
333.15
333.15
333.15
333.15
333.15
333.15
333.14999
333.14998
333.14994
333.14983
333.14951
333.14862
333.14578
333.13566
333.10829
333.15
333.15
333.15
333.15
333.15
333.15
333.14999
333.14998
333.14993
333.14978
333.1494
333.14835
333.14509
333.13395
333.10584
333.15
333.15
333.15
333.15
333.15
333.15
333.14999
333.14997
333.1499
333.14973
333.14928
333.14807
333.14437
333.13226
333.10354
333.15
333.15
333.15
333.15
333.15
333.14999
333.14998
333.14996
333.14988
333.14967
333.14915
333.14777
333.1436
333.13058
333.1014
333.15
333.15
333.15
333.15
333.15
333.14999
333.14998
333.14994
333.14985
333.14961
333.14901
333.14745
333.1428
333.12892
333.0994
333.15
333.15
333.15
333.15
333.15
333.14999
333.14997
333.14993
333.14982
333.14954
333.14886
333.1471
333.14195
333.12729
333.09755
333.15
333.15
333.15
333.15
333.15
333.14999
333.14997
333.14991
333.14978
333.14946
333.1487
333.14673
333.14106
333.1257
333.09583
333.15
333.15
333.15
333.15
333.14999
333.14998
333.14996
333.1499
333.14974
333.14938
333.14852
333.14633
333.14012
333.12415
333.09424
333.15
333.15
333.15
333.15
333.14999
333.14998
333.14995
333.14988
333.1497
333.14929
333.14834
333.14591
333.13915
333.12264
333.09278
333.15
333.15
333.15
333.15
333.14999
333.14998
333.14994
333.14985
333.14965
333.1492
333.14814
333.14545
333.13813
333.12118
333.09145
333.15
333.15
333.15
333.14999
333.14999
333.14997
333.14993
333.14983
333.1496
333.14909
333.14792
333.14497
333.13708
333.11978
333.09023
333.15
333.15
333.15
333.14999
333.14999
333.14997
333.14992
333.1498
333.14955
333.14899
333.1477
333.14444
333.136
333.11844
333.08913
333.15
333.15
333.15
333.14999
333.14998
333.14996
333.1499
333.14977
333.14949
333.14887
333.14745
333.14388
333.1349
333.11716
333.08813
333.15
333.15
333.15
333.14999
333.14998
333.14995
333.14989
333.14974
333.14943
333.14874
333.14718
333.14327
333.13378
333.11595
333.08723
333.15
333.15
333.14999
333.14999
333.14998
333.14994
333.14987
333.14971
333.14936
333.14861
333.1469
333.14263
333.13265
333.1148
333.08641
333.15
333.15
333.14999
333.14999
333.14997
333.14993
333.14985
333.14967
333.14929
333.14847
333.14658
333.14194
333.13152
333.11371
333.08568
333.15
333.15
333.14999
333.14998
333.14997
333.14992
333.14983
333.14963
333.14921
333.14831
333.14625
333.14122
333.1304
333.11269
333.08502
333.15
333.15
333.14999
333.14998
333.14996
333.14991
333.14981
333.14959
333.14913
333.14815
333.14588
333.14046
333.1293
333.11172
333.08442
333.15
333.14999
333.14999
333.14998
333.14995
333.1499
333.14979
333.14954
333.14904
333.14797
333.14549
333.13966
333.12823
333.11081
333.08388
333.15
333.14999
333.14999
333.14998
333.14995
333.14989
333.14976
333.14949
333.14895
333.14777
333.14506
333.13884
333.12718
333.10996
333.08339
333.14999
333.14999
333.14999
333.14997
333.14994
333.14987
333.14973
333.14944
333.14884
333.14756
333.1446
333.138
333.12617
333.10915
333.08295
333.14999
333.14999
333.14998
333.14997
333.14993
333.14986
333.1497
333.14939
333.14873
333.14733
333.14411
333.13714
333.12519
333.1084
333.08254
333.14999
333.14999
333.14998
333.14996
333.14992
333.14984
333.14967
333.14932
333.14861
333.14708
333.14358
333.13627
333.12425
333.10768
333.08217
333.14999
333.14999
333.14998
333.14996
333.14991
333.14982
333.14964
333.14926
333.14849
333.14681
333.14303
333.1354
333.12335
333.107
333.08183
333.14999
333.14999
333.14998
333.14995
333.1499
333.1498
333.1496
333.14919
333.14835
333.14652
333.14244
333.13453
333.12249
333.10637
333.08152
333.14999
333.14998
333.14997
333.14995
333.14989
333.14978
333.14956
333.14911
333.1482
333.1462
333.14182
333.13367
333.12166
333.10576
333.08123
333.14999
333.14998
333.14997
333.14994
333.14988
333.14976
333.14952
333.14903
333.14803
333.14585
333.14119
333.13283
333.12087
333.10519
333.08097
333.14999
333.14998
333.14997
333.14993
333.14987
333.14974
333.14947
333.14894
333.14785
333.14548
333.14053
333.132
333.12012
333.10465
333.08072
333.14998
333.14998
333.14996
333.14993
333.14985
333.14971
333.14942
333.14885
333.14766
333.14509
333.13985
333.13118
333.1194
333.10414
333.08049
333.14998
333.14998
333.14996
333.14992
333.14984
333.14968
333.14937
333.14875
333.14745
333.14467
333.13916
333.13039
333.11871
333.10365
333.08028
333.14998
333.14997
333.14995
333.14991
333.14982
333.14965
333.14931
333.14864
333.14722
333.14422
333.13847
333.12962
333.11805
333.10319
333.08008
333.14998
333.14997
333.14995
333.1499
333.1498
333.14962
333.14925
333.14851
333.14698
333.14375
333.13777
333.12888
333.11741
333.10274
333.0799
333.14997
333.14996
333.14994
333.14989
333.14978
333.14958
333.14918
333.14838
333.14671
333.14325
333.13707
333.12815
333.11681
333.10232
333.07973
333.14997
333.14996
333.14993
333.14988
333.14976
333.14954
333.14911
333.14824
333.14643
333.14274
333.13638
333.12745
333.11623
333.10192
333.07957
333.14997
333.14996
333.14993
333.14986
333.14974
333.1495
333.14903
333.14809
333.14612
333.1422
333.13569
333.12677
333.11567
333.10154
333.07941
333.14996
333.14995
333.14992
333.14985
333.14972
333.14946
333.14895
333.14792
333.14579
333.14165
333.13501
333.12611
333.11513
333.10117
333.07927
333.14996
333.14995
333.14991
333.14984
333.14969
333.14941
333.14886
333.14774
333.14544
333.14109
333.13434
333.12548
333.11462
333.10082
333.07914
333.14995
333.14994
333.1499
333.14982
333.14966
333.14936
333.14876
333.14754
333.14506
333.14052
333.13368
333.12486
333.11412
333.10048
333.07902
333.14995
333.14993
333.14989
333.1498
333.14963
333.1493
333.14865
333.14733
333.14467
333.13995
333.13303
333.12427
333.11365
333.10016
333.0789
333.14994
333.14993
333.14988
333.14979
333.1496
333.14924
333.14853
333.1471
333.14426
333.13936
333.1324
333.12369
333.11319
333.09985
333.07879
333.14994
333.14992
333.14987
333.14977
333.14957
333.14918
333.14841
333.14685
333.14383
333.13878
333.13178
333.12314
333.11275
333.09955
333.07868
333.14993
333.14991
333.14986
333.14974
333.14953
333.1491
333.14827
333.14659
333.14339
333.1382
333.13117
333.1226
333.11232
333.09927
333.07859
333.14993
333.1499
333.14984
333.14972
333.14949
333.14903
333.14812
333.14631
333.14293
333.13762
333.13058
333.12207
333.11191
333.09899
333.0785
333.14992
333.14989
333.14983
333.1497
333.14944
333.14894
333.14796
333.14601
333.14246
333.13704
333.13001
333.12157
333.11151
333.09873
333.07841
333.14991
333.14988
333.14981
333.14967
333.14939
333.14885
333.14778
333.14569
333.14197
333.13647
333.12944
333.12108
333.11113
333.09847
333.07833
333.1499
333.14987
333.1498
333.14964
333.14934
333.14875
333.1476
333.14535
333.14148
333.13591
333.1289
333.1206
333.11076
333.09823
333.07825
333.14989
333.14986
333.14978
333.14961
333.14928
333.14865
333.14739
333.145
333.14099
333.13535
333.12836
333.12014
333.1104
333.09799
333.07818
333.14988
333.14985
333.14976
333.14958
333.14922
333.14853
333.14717
333.14463
333.14049
333.1348
333.12784
333.11969
333.11005
333.09776
333.07811
333.14987
333.14983
333.14974
333.14954
333.14915
333.1484
333.14694
333.14425
333.13998
333.13426
333.12733
333.11926
333.10971
333.09754
333.07805
333.14986
333.14982
333.14971
333.1495
333.14908
333.14827
333.14669
333.14385
333.13948
333.13373
333.12683
333.11884
333.10939
333.09732
333.07799
333.14985
333.1498
333.14969
333.14945
333.149
333.14812
333.14643
333.14345
333.13898
333.1332
333.12635
333.11843
333.10907
333.09712
333.07793
333.14983
333.14978
333.14966
333.14941
333.14892
333.14796
333.14615
333.14303
333.13847
333.13269
333.12588
333.11803
333.10876
333.09692
333.07788
333.14982
333.14976
333.14963
333.14936
333.14882
333.14779
333.14585
333.1426
333.13797
333.13218
333.12542
333.11764
333.10846
333.09672
333.07783
333.1498
333.14974
333.1496
333.1493
333.14872
333.14761
333.14554
333.14217
333.13747
333.13169
333.12497
333.11726
333.10817
333.09653
333.07778
333.14978
333.14972
333.14956
333.14924
333.14861
333.14741
333.14522
333.14173
333.13698
333.1312
333.12453
333.11689
333.10789
333.09635
333.07774
333.14976
333.1497
333.14952
333.14917
333.14849
333.14719
333.14488
333.14128
333.13649
333.13072
333.1241
333.11654
333.10762
333.09618
333.0777
333.14974
333.14967
333.14948
333.1491
333.14836
333.14697
333.14453
333.14084
333.13601
333.13026
333.12368
333.11619
333.10735
333.096
333.07766
333.14972
333.14964
333.14944
333.14902
333.14823
333.14673
333.14417
333.14039
333.13553
333.1298
333.12327
333.11585
333.10709
333.09584
333.07762
333.14969
333.14961
333.14939
333.14894
333.14808
333.14647
333.14379
333.13993
333.13506
333.12935
333.12288
333.11551
333.10683
333.09567
333.07759
333.14967
333.14957
333.14933
333.14885
333.14791
333.1462
333.14341
333.13948
333.13459
333.12891
333.12249
333.11519
333.10659
333.09552
333.07756
333.14964
333.14954
333.14928
333.14875
333.14774
333.14592
333.14302
333.13903
333.13413
333.12848
333.1221
333.11488
333.10635
333.09536
333.07753
333.1496
333.1495
333.14921
333.14864
333.14755
333.14563
333.14263
333.13858
333.13368
333.12805
333.12173
333.11457
333.10611
333.09521
333.0775
333.14957
333.14945
333.14914
333.14852
333.14735
333.14532
333.14223
333.13814
333.13323
333.12764
333.12137
333.11426
333.10588
333.09507
333.07747
333.14953
333.1494
333.14907
333.14839
333.14714
333.145
333.14182
333.13769
333.13279
333.12723
333.12101
333.11397
333.10566
333.09493
333.07744
333.14949
333.14935
333.14898
333.14826
333.14691
333.14467
333.14141
333.13725
333.13235
333.12683
333.12066
333.11368
333.10544
333.09479
333.07742
333.14944
333.14929
333.14889
333.14811
333.14667
333.14433
333.141
333.13681
333.13193
333.12644
333.12032
333.1134
333.10523
333.09465
333.07739
333.14939
333.14923
333.1488
333.14795
333.14642
333.14398
333.14058
333.13637
333.13151
333.12605
333.11999
333.11312
333.10502
333.09452
333.07737
333.14934
333.14916
333.14869
333.14777
333.14615
333.14362
333.14017
333.13594
333.13109
333.12567
333.11966
333.11285
333.10481
333.09439
333.07735
333.14928
333.14908
333.14857
333.14759
333.14587
333.14325
333.13975
333.13552
333.13068
333.1253
333.11933
333.11259
333.10461
333.09427
333.07733
333.14921
333.149
333.14845
333.14739
333.14558
333.14288
333.13933
333.13509
333.13028
333.12494
333.11902
333.11233
333.10442
333.09414
333.07731
333.14914
333.14891
333.14831
333.14718
333.14528
333.1425
333.13892
333.13467
333.12988
333.12458
333.11871
333.11208
333.10422
333.09402
333.07729
333.14906
333.14881
333.14816
333.14695
333.14497
333.14212
333.1385
333.13426
333.12949
333.12423
333.11841
333.11183
333.10404
333.09391
333.07727
333.14897
333.1487
333.14801
333.14672
333.14464
333.14173
333.13809
333.13385
333.12911
333.12388
333.11811
333.11158
333.10385
333.09379
333.07725
333.14887
333.14858
333.14783
333.14647
333.14431
333.14134
333.13768
333.13345
333.12873
333.12354
333.11782
333.11134
333.10367
333.09368
333.07723
333.14877
333.14845
333.14765
333.1462
333.14397
333.14095
333.13727
333.13305
333.12836
333.12321
333.11753
333.11111
333.10349
333.09356
333.07721
333.14865
333.14831
333.14745
333.14593
333.14362
333.14055
333.13686
333.13265
333.12799
333.12288
333.11725
333.11088
333.10332
333.09345
333.07719
333.14853
333.14815
333.14724
333.14564
333.14326
333.14016
333.13645
333.13226
333.12763
333.12256
333.11697
333.11065
333.10315
333.09335
333.07718
333.14839
333.14799
333.14701
333.14534
333.1429
333.13976
333.13605
333.13187
333.12727
333.12224
333.1167
333.11043
333.10298
333.09324
333.07716
333.14823
333.1478
333.14677
333.14502
333.14253
333.13936
333.13565
333.13149
333.12692
333.12193
333.11643
333.11021
333.10281
333.09314
333.07714
333.14807
333.14761
333.14652
333.1447
333.14215
333.13896
333.13526
333.13111
333.12657
333.12162
333.11617
333.10999
333.10265
333.09303
333.07712
333.14788
333.1474
333.14625
333.14437
333.14177
333.13857
333.13486
333.13074
333.12623
333.12132
333.11591
333.10978
333.10249
333.09293
333.07711
333.14769
333.14717
333.14596
333.14402
333.14139
333.13817
333.13447
333.13037
333.1259
333.12102
333.11565
333.10957
333.10233
333.09283
333.07709
333.14747
333.14693
333.14567
333.14367
333.141
333.13777
333.13408
333.13001
333.12556
333.12073
333.1154
333.10937
333.10217
333.09273
333.07707
333.14724
333.14667
333.14535
333.14331
333.14061
333.13738
333.1337
333.12964
333.12524
333.12044
333.11516
333.10917
333.10202
333.09264
333.07705
333.14699
333.14639
333.14503
333.14295
333.14022
333.13698
333.13332
333.12929
333.12491
333.12016
333.11491
333.10897
333.10187
333.09254
333.07703
333.14672
333.14609
333.14469
333.14257
333.13983
333.13659
333.13294
333.12894
333.1246
333.11987
333.11467
333.10877
333.10172
333.09244
333.07702
333.14643
333.14578
333.14434
333.14219
333.13943
333.13619
333.13256
333.12859
333.12428
333.1196
333.11443
333.10858
333.10157
333.09235
333.077
333.14612
333.14545
333.14398
333.1418
333.13903
333.1358
333.13219
333.12824
333.12397
333.11932
333.1142
333.10838
333.10142
333.09225
333.07698
333.1458
333.14511
333.14361
333.14141
333.13864
333.13541
333.13182
333.1279
333.12366
333.11905
333.11397
333.10819
333.10128
333.09216
333.07696
333.14545
333.14475
333.14323
333.14101
333.13824
333.13502
333.13146
333.12757
333.12336
333.11879
333.11374
333.10801
333.10114
333.09207
333.07694
333.14508
333.14437
333.14283
333.1406
333.13783
333.13464
333.13109
333.12723
333.12306
333.11852
333.11352
333.10782
333.10099
333.09198
333.07692
333.1447
333.14398
333.14243
333.1402
333.13743
333.13425
333.13073
333.1269
333.12276
333.11826
333.11329
333.10764
333.10085
333.09189
333.07689
333.1443
333.14357
333.14202
333.13978
333.13703
333.13387
333.13038
333.12658
333.12247
333.11801
333.11307
333.10746
333.10072
333.0918
333.07687
333.14389
333.14315
333.14159
333.13937
333.13663
333.13349
333.13002
333.12625
333.12218
333.11775
333.11286
333.10728
333.10058
333.09171
333.07685
333.14346
333.14272
333.14117
333.13895
333.13623
333.13311
333.12967
333.12593
333.1219
333.1175
333.11264
333.1071
333.10044
333.09162
333.07682
333.14301
333.14228
333.14073
333.13853
333.13582
333.13273
333.12932
333.12562
333.12161
333.11725
333.11243
333.10693
333.10031
333.09153
333.0768
333.14256
333.14183
333.14029
333.1381
333.13542
333.13236
333.12897
333.1253
333.12133
333.11701
333.11222
333.10675
333.10017
333.09144
333.07677
333.14209
333.14137
333.13984
333.13767
333.13502
333.13198
333.12863
333.12499
333.12105
333.11676
333.11201
333.10658
333.10004
333.09135
333.07675
333.14161
333.1409
333.13939
333.13724
333.13461
333.13161
333.12829
333.12468
333.12078
333.11652
333.1118
333.10641
333.09991
333.09126
333.07672
333.14113
333.14042
333.13893
333.13681
333.13421
333.13123
333.12795
333.12437
333.1205
333.11628
333.1116
333.10624
333.09977
333.09117
333.07669
333.14064
333.13994
333.13847
333.13638
333.13381
333.13086
333.12761
333.12407
333.12023
333.11604
333.11139
333.10607
333.09964
333.09108
333.07666
333.14014
333.13946
333.13801
333.13595
333.13341
333.13049
333.12727
333.12377
333.11996
333.11581
333.11119
333.1059
333.09951
333.09099
333.07663
333.13964
333.13897
333.13754
333.13551
333.133
333.13013
333.12694
333.12346
333.11969
333.11557
333.11099
333.10574
333.09938
333.0909
333.0766
333.13913
333.13847
333.13707
333.13507
333.1326
333.12976
333.1266
333.12317
333.11943
333.11534
333.11079
333.10557
333.09925
333.09081
333.07657
333.13862
333.13798
333.1366
333.13464
333.1322
333.12939
333.12627
333.12287
333.11916
333.11511
333.11059
333.10541
333.09912
333.09072
333.07653
333.13811
333.13748
333.13613
333.1342
333.1318
333.12903
333.12594
333.12257
333.1189
333.11488
333.1104
333.10524
333.09899
333.09063
333.0765
333.1376
333.13698
333.13566
333.13376
333.1314
333.12866
333.12562
333.12228
333.11864
333.11465
333.1102
333.10508
333.09886
333.09054
333.07646
333.13709
333.13649
333.13519
333.13333
333.131
333.1283
333.12529
333.12199
333.11838
333.11442
333.11001
333.10492
333.09873
333.09045
333.07642
333.13658
333.13599
333.13472
333.13289
333.1306
333.12794
333.12496
333.1217
333.11812
333.1142
333.10981
333.10475
333.0986
333.09036
333.07638
333.13607
333.13549
333.13425
333.13246
333.13021
333.12758
333.12464
333.12141
333.11787
333.11397
333.10962
333.10459
333.09848
333.09027
333.07634
333.13557
333.135
333.13379
333.13202
333.12981
333.12722
333.12432
333.12112
333.11761
333.11375
333.10943
333.10443
333.09835
333.09017
333.0763
333.13506
333.13451
333.13332
333.13159
333.12941
333.12686
333.124
333.12083
333.11736
333.11353
333.10923
333.10427
333.09822
333.09008
333.07626
333.13456
333.13402
333.13286
333.13116
333.12902
333.12651
333.12368
333.12054
333.1171
333.11331
333.10904
333.10411
333.09809
333.08999
333.07621
333.13406
333.13353
333.1324
333.13073
333.12863
333.12615
333.12336
333.12026
333.11685
333.11308
333.10885
333.10395
333.09796
333.08989
333.07616
333.13357
333.13305
333.13194
333.13031
333.12824
333.1258
333.12304
333.11998
333.1166
333.11286
333.10866
333.10379
333.09783
333.08979
333.07611
333.13308
333.13257
333.13148
333.12989
333.12785
333.12545
333.12272
333.11969
333.11635
333.11264
333.10847
333.10363
333.0977
333.0897
333.07606
333.13259
333.1321
333.13103
333.12946
333.12747
333.1251
333.12241
333.11941
333.1161
333.11242
333.10828
333.10347
333.09757
333.0896
333.07601
333.13211
333.13163
333.13058
333.12905
333.12708
333.12475
333.1221
333.11913
333.11585
333.11221
333.10809
333.1033
333.09743
333.0895
333.07596
333.13163
333.13116
333.13014
333.12863
333.1267
333.12441
333.12178
333.11885
333.1156
333.11199
333.1079
333.10314
333.0973
333.0894
333.0759
333.13116
333.1307
333.1297
333.12822
333.12632
333.12406
333.12147
333.11857
333.11536
333.11177
333.10771
333.10298
333.09717
333.0893
333.07584
333.13069
333.13024
333.12926
333.12781
333.12595
333.12372
333.12116
333.1183
333.11511
333.11155
333.10752
333.10282
333.09704
333.0892
333.07578
333.13023
333.12978
333.12882
333.1274
333.12557
333.12338
333.12085
333.11802
333.11486
333.11133
333.10733
333.10266
333.0969
333.08909
333.07572
333.12977
333.12933
333.12839
333.127
333.1252
333.12304
333.12055
333.11774
333.11462
333.11112
333.10714
333.1025
333.09677
333.08899
333.07565
333.12931
333.12889
333.12797
333.1266
333.12483
333.1227
333.12024
333.11747
333.11437
333.1109
333.10695
333.10233
333.09663
333.08888
333.07558
333.12887
333.12845
333.12755
333.12621
333.12447
333.12237
333.11994
333.1172
333.11413
333.11068
333.10676
333.10217
333.09649
333.08877
333.07552
333.12842
333.12802
333.12713
333.12581
333.1241
333.12203
333.11964
333.11692
333.11388
333.11047
333.10657
333.102
333.09635
333.08866
333.07544
333.12798
333.12759
333.12672
333.12543
333.12374
333.1217
333.11934
333.11665
333.11364
333.11025
333.10638
333.10184
333.09621
333.08855
333.07537
333.12755
333.12716
333.12631
333.12504
333.12338
333.12137
333.11904
333.11638
333.1134
333.11004
333.10619
333.10167
333.09607
333.08844
333.07529
333.12712
333.12674
333.12591
333.12466
333.12303
333.12105
333.11874
333.11611
333.11316
333.10982
333.106
333.10151
333.09593
333.08832
333.07522
333.1267
333.12633
333.12551
333.12428
333.12268
333.12072
333.11844
333.11585
333.11292
333.1096
333.10581
333.10134
333.09579
333.08821
333.07514
333.12629
333.12592
333.12511
333.12391
333.12233
333.1204
333.11815
333.11558
333.11267
333.10939
333.10562
333.10117
333.09565
333.08809
333.07505
333.12587
333.12551
333.12472
333.12354
333.12198
333.12008
333.11786
333.11531
333.11243
333.10917
333.10543
333.10101
333.0955
333.08797
333.07497
333.12547
333.12511
333.12433
333.12317
333.12164
333.11976
333.11756
333.11505
333.1122
333.10896
333.10524
333.10084
333.09536
333.08785
333.07488
333.12506
333.12472
333.12395
333.1228
333.1213
333.11945
333.11727
333.11478
333.11196
333.10874
333.10505
333.10067
333.09521
333.08773
333.07479
333.12467
333.12432
333.12357
333.12244
333.12096
333.11913
333.11699
333.11452
333.11172
333.10853
333.10485
333.1005
333.09506
333.0876
333.0747
333.12427
333.12394
333.1232
333.12209
333.12062
333.11882
333.1167
333.11426
333.11148
333.10831
333.10466
333.10033
333.09492
333.08748
333.07461
333.12389
333.12356
333.12283
333.12174
333.12029
333.11851
333.11642
333.114
333.11124
333.1081
333.10447
333.10016
333.09476
333.08735
333.07451
333.1235
333.12318
333.12246
333.12139
333.11996
333.11821
333.11613
333.11374
333.11101
333.10789
333.10428
333.09998
333.09461
333.08722
333.07441
333.12313
333.12281
333.1221
333.12104
333.11964
333.1179
333.11585
333.11348
333.11077
333.10767
333.10408
333.09981
333.09446
333.08709
333.07431
333.12275
333.12244
333.12174
333.1207
333.11931
333.1176
333.11557
333.11322
333.11054
333.10746
333.10389
333.09964
333.09431
333.08696
333.07421
333.12238
333.12207
333.12139
333.12036
333.11899
333.1173
333.11529
333.11297
333.1103
333.10724
333.1037
333.09946
333.09415
333.08683
333.0741
333.12202
333.12171
333.12104
333.12003
333.11868
333.117
333.11502
333.11271
333.11007
333.10703
333.1035
333.09929
333.094
333.08669
333.07399
333.12166
333.12136
333.1207
333.11969
333.11836
333.11671
333.11474
333.11246
333.10983
333.10682
333.10331
333.09911
333.09384
333.08655
333.07388
333.1213
333.12101
333.12035
333.11936
333.11805
333.11642
333.11447
333.1122
333.1096
333.1066
333.10311
333.09894
333.09368
333.08642
333.07377
333.12095
333.12066
333.12002
333.11904
333.11774
333.11613
333.1142
333.11195
333.10937
333.10639
333.10292
333.09876
333.09352
333.08628
333.07366
333.1206
333.12032
333.11968
333.11872
333.11743
333.11584
333.11393
333.1117
333.10914
333.10618
333.10272
333.09858
333.09336
333.08613
333.07354
333.12026
333.11998
333.11935
333.1184
333.11713
333.11555
333.11366
333.11145
333.1089
333.10596
333.10253
333.0984
333.0932
333.08599
333.07342
333.11992
333.11964
333.11902
333.11808
333.11683
333.11527
333.11339
333.1112
333.10867
333.10575
333.10233
333.09822
333.09304
333.08585
333.0733
333.11958
333.11931
333.1187
333.11777
333.11653
333.11498
333.11313
333.11096
333.10844
333.10554
333.10213
333.09804
333.09287
333.0857
333.07318
333.11925
333.11898
333.11838
333.11746
333.11623
333.1147
333.11286
333.11071
333.10821
333.10532
333.10194
333.09786
333.09271
333.08555
333.07305
333.11892
333.11865
333.11806
333.11715
333.11594
333.11442
333.1126
333.11046
333.10799
333.10511
333.10174
333.09768
333.09254
333.0854
333.07293
333.1186
333.11833
333.11774
333.11685
333.11565
333.11415
333.11234
333.11022
333.10776
333.1049
333.10154
333.0975
333.09238
333.08525
333.0728
333.11828
333.11801
333.11743
333.11655
333.11536
333.11387
333.11208
333.10998
333.10753
333.10469
333.10135
333.09732
333.09221
333.0851
333.07267
333.11796
333.1177
333.11712
333.11625
333.11507
333.1136
333.11182
333.10973
333.1073
333.10447
333.10115
333.09713
333.09204
333.08495
333.07254
333.11765
333.11739
333.11682
333.11595
333.11479
333.11333
333.11157
333.10949
333.10708
333.10426
333.10095
333.09695
333.09187
333.08479
333.0724
333.11733
333.11708
333.11652
333.11566
333.11451
333.11306
333.11131
333.10925
333.10685
333.10405
333.10075
333.09677
333.0917
333.08464
333.07227
333.11703
333.11677
333.11622
333.11537
333.11423
333.11279
333.11106
333.10901
333.10662
333.10384
333.10055
333.09658
333.09153
333.08448
333.07213
333.11672
333.11647
333.11592
333.11508
333.11395
333.11253
333.11081
333.10877
333.1064
333.10363
333.10036
333.09639
333.09135
333.08432
333.07199
333.11642
333.11617
333.11563
333.1148
333.11368
333.11226
333.11056
333.10854
333.10617
333.10342
333.10016
333.09621
333.09118
333.08416
333.07185
333.11612
333.11588
333.11534
333.11451
333.1134
333.112
333.11031
333.1083
333.10595
333.1032
333.09996
333.09602
333.09101
333.084
333.07171
333.11583
333.11558
333.11505
333.11423
333.11313
333.11174
333.11006
333.10806
333.10573
333.10299
333.09976
333.09583
333.09083
333.08384
333.07156
333.11553
333.11529
333.11476
333.11395
333.11286
333.11148
333.10981
333.10783
333.1055
333.10278
333.09956
333.09565
333.09066
333.08368
333.07142
333.11524
333.115
333.11448
333.11368
333.11259
333.11123
333.10957
333.10759
333.10528
333.10257
333.09936
333.09546
333.09048
333.08351
333.07127
333.11495
333.11472
333.1142
333.1134
333.11233
333.11097
333.10932
333.10736
333.10506
333.10236
333.09916
333.09527
333.0903
333.08335
333.07112
333.11467
333.11444
333.11392
333.11313
333.11207
333.11072
333.10908
333.10713
333.10484
333.10215
333.09896
333.09508
333.09012
333.08318
333.07097
333.11439
333.11416
333.11365
333.11286
333.1118
333.11046
333.10883
333.1069
333.10462
333.10194
333.09876
333.09489
333.08994
333.08301
333.07082
333.11411
333.11388
333.11337
333.11259
333.11154
333.11021
333.10859
333.10666
333.1044
333.10173
333.09856
333.0947
333.08976
333.08285
333.07067
333.11383
333.1136
333.1131
333.11233
333.11129
333.10996
333.10835
333.10643
333.10417
333.10152
333.09836
333.09451
333.08958
333.08268
333.07052
333.11355
333.11333
333.11283
333.11206
333.11103
333.10972
333.10811
333.1062
333.10396
333.10131
333.09816
333.09432
333.0894
333.08251
333.07036
333.11328
333.11306
333.11256
333.1118
333.11077
333.10947
333.10788
333.10598
333.10374
333.1011
333.09796
333.09413
333.08922
333.08234
333.07021
333.11301
333.11279
333.1123
333.11154
333.11052
333.10922
333.10764
333.10575
333.10352
333.10089
333.09776
333.09393
333.08904
333.08216
333.07005
333.11274
333.11252
333.11203
333.11128
333.11027
333.10898
333.1074
333.10552
333.1033
333.10068
333.09756
333.09374
333.08885
333.08199
333.06989
333.11248
333.11226
333.11177
333.11103
333.11002
333.10874
333.10717
333.10529
333.10308
333.10047
333.09735
333.09355
333.08867
333.08182
333.06973
333.11221
333.11199
333.11151
333.11077
333.10977
333.10849
333.10693
333.10507
333.10286
333.10026
333.09715
333.09336
333.08849
333.08164
333.06957
333.11195
333.11173
333.11125
333.11052
333.10952
333.10825
333.1067
333.10484
333.10264
333.10005
333.09695
333.09316
333.0883
333.08147
333.06941
333.11169
333.11147
333.111
333.11027
333.10928
333.10801
333.10647
333.10462
333.10243
333.09984
333.09675
333.09297
333.08812
333.08129
333.06925
333.11143
333.11122
333.11074
333.11002
333.10903
333.10777
333.10624
333.10439
333.10221
333.09963
333.09655
333.09277
333.08793
333.08112
333.06908
333.11117
333.11096
333.11049
333.10977
333.10879
333.10754
333.106
333.10417
333.10199
333.09942
333.09635
333.09258
333.08774
333.08094
333.06892
333.11092
333.11071
333.11024
333.10952
333.10855
333.1073
333.10577
333.10395
333.10178
333.09921
333.09614
333.09239
333.08756
333.08076
333.06875
333.11066
333.11045
333.10999
333.10928
333.1083
333.10707
333.10555
333.10372
333.10156
333.099
333.09594
333.09219
333.08737
333.08058
333.06858
333.11041
333.1102
333.10974
333.10903
333.10806
333.10683
333.10532
333.1035
333.10135
333.09879
333.09574
333.092
333.08718
333.0804
333.06842
333.11016
333.10996
333.1095
333.10879
333.10783
333.1066
333.10509
333.10328
333.10113
333.09858
333.09554
333.0918
333.08699
333.08022
333.06825
333.10991
333.10971
333.10925
333.10855
333.10759
333.10637
333.10486
333.10306
333.10092
333.09838
333.09533
333.0916
333.08681
333.08004
333.06808
333.10967
333.10946
333.10901
333.10831
333.10735
333.10613
333.10464
333.10284
333.1007
333.09817
333.09513
333.09141
333.08662
333.07986
333.06791
333.10942
333.10922
333.10876
333.10807
333.10712
333.1059
333.10441
333.10262
333.10049
333.09796
333.09493
333.09121
333.08643
333.07968
333.06774
333.10918
333.10897
333.10852
333.10783
333.10688
333.10567
333.10419
333.1024
333.10027
333.09775
333.09473
333.09102
333.08624
333.0795
333.06757
333.10893
333.10873
333.10828
333.10759
333.10665
333.10544
333.10396
333.10218
333.10006
333.09754
333.09452
333.09082
333.08605
333.07932
333.06739
333.10869
333.10849
333.10804
333.10736
333.10642
333.10522
333.10374
333.10196
333.09985
333.09733
333.09432
333.09062
333.08586
333.07913
333.06722
333.10845
333.10825
333.10781
333.10712
333.10618
333.10499
333.10352
333.10174
333.09963
333.09713
333.09412
333.09043
333.08567
333.07895
333.06705
333.10821
333.10801
333.10757
333.10689
333.10595
333.10476
333.10329
333.10152
333.09942
333.09692
333.09392
333.09023
333.08547
333.07877
333.06687
333.10798