/*--------------------------------*- C++ -*----------------------------------*\
| =========                 |                                                 |
| \\      /  F ield         | OpenFOAM: The Open Source CFD Toolbox           |
|  \\    /   O peration     | Version:  2506                                  |
|   \\  /    A nd           | Website:  www.openfoam.com                      |
|    \\/     M anipulation  |                                                 |
\*---------------------------------------------------------------------------*/
FoamFile
{
    version     2.0;
    format      ascii;
    arch        "LSB;label=32;scalar=64";
    class       volVectorField;
    location    "14000/water";
    object      U;
}
// * * * * * * * * * * * * * * * * * * * * * * * * * * * * * * * * * * * * * //

dimensions      [0 1 -1 0 0 0 0];

internalField   nonuniform List<vector> 
6000
(
(0.25028648 -3.4193492e-05 -2.2676483e-18)
(0.25028875 -7.4648812e-05 -5.1837148e-18)
(0.25029344 -0.00011804414 -5.0326596e-20)
(0.25030059 -0.00016540046 -1.7891814e-19)
(0.25031046 -0.00021487336 2.9500375e-19)
(0.25032332 -0.00026685039 -1.0991e-19)
(0.25033948 -0.00032192175 -3.1882238e-19)
(0.25035939 -0.00038078672 -2.6314428e-19)
(0.25038356 -0.00044434477 1.4223113e-19)
(0.25041254 -0.00051362452 -1.0217268e-19)
(0.25044587 -0.00058677559 -2.4529945e-19)
(0.25047643 -0.00065822056 -1.3927267e-19)
(0.25046276 -0.00078466513 2.2173967e-21)
(0.25013031 -0.0015987837 -3.7966229e-20)
(0.24584996 0.0019968142 -3.9631743e-21)
(0.25104035 -3.7261304e-05 5.1575937e-19)
(0.25104514 -8.9895979e-05 -2.4374564e-18)
(0.2510558 -0.00014352114 -6.3537728e-19)
(0.25107219 -0.00020025424 3.3759272e-19)
(0.2510947 -0.0002571822 1.1273444e-18)
(0.25112368 -0.00031440571 -7.18769e-20)
(0.25115965 -0.00037188242 -4.672756e-19)
(0.25120324 -0.00042947839 -2.4154166e-19)
(0.2512551 -0.00048709454 1.1694591e-19)
(0.25131538 -0.00054561245 9.3039518e-20)
(0.25138039 -0.00060405492 -2.1511141e-19)
(0.25142587 -0.00063755821 -1.4827146e-19)
(0.25133175 -0.00059164843 4.5443564e-21)
(0.25037931 -0.0014370973 8.2499544e-20)
(0.24194277 0.00099520264 8.1330544e-20)
(0.25195051 -3.6589028e-05 -1.7666903e-18)
(0.25195563 -9.0250612e-05 3.3520976e-18)
(0.25196731 -0.00014313025 1.6660616e-18)
(0.25198528 -0.00019912655 -9.0749761e-19)
(0.25200977 -0.00025508716 5.9804321e-19)
(0.25204101 -0.0003112558 -9.933342e-19)
(0.25207932 -0.00036762123 -1.1009814e-18)
(0.25212505 -0.00042413945 -7.2058855e-19)
(0.25217823 -0.00048056787 -6.9334447e-19)
(0.25223708 -0.0005377572 -1.5031424e-21)
(0.25229114 -0.00060007155 -3.4232499e-19)
(0.25229033 -0.00065419843 -3.5783553e-19)
(0.25200573 -0.00054460881 -2.1960566e-19)
(0.25014357 -0.0012195308 -3.0998634e-20)
(0.23758495 0.00043820543 -7.0925749e-21)
(0.25283353 -3.7446604e-05 5.2865469e-19)
(0.25283867 -9.3611088e-05 -9.9590045e-19)
(0.25285018 -0.00014906892 1.8478128e-18)
(0.25286783 -0.00020791578 -4.7897738e-19)
(0.25289182 -0.00026672308 1.3293039e-19)
(0.25292238 -0.00032582165 -7.6790921e-19)
(0.25295982 -0.00038519269 -9.4986383e-19)
(0.25300432 -0.00044485276 -9.3583778e-19)
(0.25305525 -0.00050441426 -7.373425e-19)
(0.25310809 -0.00056332944 9.9441405e-21)
(0.25314261 -0.00062607506 -2.7733384e-19)
(0.25307635 -0.00069910336 -3.360375e-19)
(0.25255493 -0.0005845712 -1.7030514e-19)
(0.24963188 -0.001063787 -5.258521e-20)
(0.23320285 0.0001058672 -9.5720412e-20)
(0.25372643 -3.8342944e-05 1.2731085e-17)
(0.2537317 -9.6368691e-05 1.6829922e-18)
(0.25374347 -0.00015372841 1.5071358e-18)
(0.25376156 -0.00021453144 1.9732562e-18)
(0.25378616 -0.00027516439 2.1123468e-20)
(0.25381749 -0.00033599427 2.7968664e-19)
(0.25385581 -0.00039694563 4.8356115e-20)
(0.25390101 -0.00045805575 -3.0796908e-20)
(0.25395133 -0.00051907431 -1.5950008e-21)
(0.25399821 -0.00057855465 5.3024733e-20)
(0.25400834 -0.00063773998 2.0384015e-19)
(0.25386022 -0.0007177221 1.809686e-19)
(0.25305737 -0.00062191547 9.122604e-20)
(0.24895451 -0.00093835859 1.6956401e-19)
(0.22897365 -8.3792337e-05 1.057353e-19)
(0.25464474 -3.8661619e-05 1.0297157e-18)
(0.25465014 -9.7320118e-05 3.7685345e-19)
(0.2546622 -0.00015516461 4.9527173e-19)
(0.25468073 -0.00021648308 1.4399283e-18)
(0.2547059 -0.00027758564 -6.0077765e-19)
(0.25473792 -0.000338881 9.8891425e-20)
(0.25477689 -0.00040025681 2.2435408e-19)
(0.25482222 -0.00046172799 1.4902477e-19)
(0.25487049 -0.00052322808 1.2979783e-19)
(0.2549078 -0.000583188 3.7186137e-19)
(0.25488519 -0.00063896641 1.7179191e-19)
(0.25463685 -0.00071821651 2.0533813e-19)
(0.25350729 -0.0006469875 5.7989053e-20)
(0.248129 -0.00083894719 1.1392164e-19)
(0.2249409 -0.00018589273 1.8462217e-19)
(0.25557031 -3.8595293e-05 -3.1402204e-18)
(0.25557581 -9.7309346e-05 -2.6894359e-18)
(0.25558805 -0.00015511982 -1.8150441e-18)
(0.25560682 -0.00021642526 4.282597e-19)
(0.2556323 -0.00027749359 -1.1194849e-18)
(0.25566463 -0.00033876345 1.656342e-19)
(0.25570371 -0.00040009734 1.1532652e-19)
(0.25574825 -0.00046144626 8.9057053e-20)
(0.25579256 -0.00052279714 2.5315638e-19)
(0.25581623 -0.0005828814 4.2110081e-19)
(0.25575267 -0.00063600478 2.1456274e-19)
(0.25538743 -0.00071016267 1.6050641e-19)
(0.25388915 -0.00066107344 1.8079548e-19)
(0.24716598 -0.00076077854 1.1510872e-19)
(0.22112141 -0.00023459296 1.5652844e-19)
(0.25649134 -3.8297106e-05 3.3283942e-18)
(0.25649692 -9.6712128e-05 2.4127104e-18)
(0.25650928 -0.00015419069 1.3089416e-18)
(0.25652824 -0.00021515485 4.1644648e-19)
(0.25655393 -0.00027585718 -5.0361795e-19)
(0.25658641 -0.0003367553 2.1992124e-19)
(0.25662528 -0.00039769653 -7.9414411e-20)
(0.2566683 -0.00045856441 3.6395453e-20)
(0.25670691 -0.00051927104 4.454066e-19)
(0.25671305 -0.00057893859 -7.0589807e-20)
(0.25660095 -0.00063003278 3.9508539e-19)
(0.25610359 -0.00069722485 2.1823489e-19)
(0.25419746 -0.00066519719 1.8593384e-19)
(0.24608527 -0.00069788903 8.8276837e-20)
(0.21752738 -0.00025081848 1.2632482e-19)
(0.25740382 -3.7852859e-05 -2.6007067e-18)
(0.25740947 -9.5689493e-05 -5.8644636e-19)
(0.25742193 -0.00015257331 1.6777656e-18)
(0.25744104 -0.00021291358 6.5704667e-19)
(0.25746687 -0.00027297291 4.6407164e-19)
(0.25749936 -0.0003332193 5.5480193e-20)
(0.2575377 -0.00039348924 -6.1588958e-20)
(0.2575784 -0.00045361301 2.1682963e-19)
(0.25760945 -0.00051335259 2.9481729e-19)
(0.25759421 -0.00057212213 4.8488298e-19)
(0.25742635 -0.00062159363 3.4302567e-19)
(0.25678237 -0.00068144217 2.192782e-19)
(0.25443121 -0.00066103685 9.1405262e-20)
(0.24490935 -0.00064561644 1.1401102e-19)
(0.21416513 -0.00024776584 7.0770677e-20)
(0.25830515 -3.7308638e-05 1.4712056e-19)
(0.25831084 -9.4372768e-05 -6.9095305e-19)
(0.25832339 -0.00015047648 -1.8590639e-19)
(0.2583426 -0.00020999612 2.1173505e-19)
(0.25836849 -0.00026922145 -5.7513224e-19)
(0.25840083 -0.00032862339 -1.2107156e-19)
(0.25843826 -0.00038802594 -7.4092349e-20)
(0.25847573 -0.00044722018 1.5601012e-19)
(0.25849727 -0.00050579279 7.7725736e-20)
(0.25845683 -0.00056328987 2.3159716e-19)
(0.25822634 -0.00061131675 1.7797299e-19)
(0.25742154 -0.00066417743 7.894924e-20)
(0.2545896 -0.00065044234 1.4275412e-19)
(0.24365871 -0.00060064453 1.3786622e-19)
(0.21103455 -0.00023378679 3.6053894e-20)
(0.259193 -3.669388e-05 6.8660144e-18)
(0.25919873 -9.2857459e-05 5.7673927e-18)
(0.25921134 -0.00014806165 -1.1522111e-18)
(0.25923061 -0.00020663289 -3.1177108e-19)
(0.25925648 -0.0002648995 4.7234518e-19)
(0.25928848 -0.00032332972 2.5642717e-19)
(0.25932457 -0.00038173097 1.3173286e-19)
(0.25935785 -0.00043986308 1.6136608e-19)
(0.25936788 -0.00049714489 8.4153568e-20)
(0.25929853 -0.00055310431 -3.6442035e-19)
(0.2589988 -0.00059970361 2.6500547e-19)
(0.25801896 -0.00064623362 9.547911e-20)
(0.25467145 -0.00063499349 1.5303368e-19)
(0.24235144 -0.00056062195 1.0555449e-19)
(0.20813123 -0.0002141088 -5.0444596e-20)
(0.26006576 -3.6034054e-05 6.7541723e-18)
(0.26007152 -9.1214284e-05 3.5056581e-18)
(0.26008417 -0.00014544281 -6.2070812e-19)
(0.26010346 -0.00020298347 -3.518689e-19)
(0.26012923 -0.00026021093 9.2133716e-19)
(0.2601607 -0.0003175869 7.8488069e-19)
(0.26019497 -0.00037489796 5.2618305e-19)
(0.26022303 -0.0004318747 4.7009397e-19)
(0.26021952 -0.00048779066 3.8485783e-20)
(0.26011767 -0.00054204301 -7.9239115e-22)
(0.25974224 -0.00058714002 2.4728496e-19)
(0.25857279 -0.00062806077 3.2921911e-19)
(0.25467557 -0.00061594005 1.1517344e-19)
(0.24100379 -0.00052390611 1.072778e-19)
(0.20544863 -0.00019196316 -7.154462e-20)
(0.2609225 -3.5349633e-05 2.3817091e-18)
(0.26092828 -8.9497286e-05 3.1024141e-18)
(0.26094096 -0.00014270541 9.2855815e-20)
(0.26096023 -0.00019916671 6.4717447e-19)
(0.2609858 -0.00025530722 1.1622577e-18)
(0.2610165 -0.00031157921 6.3399461e-19)
(0.26104844 -0.00036774517 3.9854803e-19)
(0.2610702 -0.00042350433 2.3999213e-19)
(0.26105114 -0.00047801113 8.7418213e-20)
(0.26091327 -0.00053046085 -2.9089539e-20)
(0.2604557 -0.00057393662 5.0013647e-20)
(0.2590814 -0.00060990566 1.9886324e-19)
(0.2546009 -0.00059424331 1.4166911e-19)
(0.23963056 -0.00048937354 1.7965737e-20)
(0.20297926 -0.00016931833 2.9082136e-20)
(0.26176274 -3.4655538e-05 2.7760104e-18)
(0.26176854 -8.7746855e-05 2.8874984e-18)
(0.26178122 -0.00013991377 -8.8448487e-19)
(0.26180042 -0.00019527247 8.3461291e-19)
(0.26182568 -0.00025030306 6.9010575e-19)
(0.26185536 -0.00030544608 2.6069586e-19)
(0.26188442 -0.00036043768 3.3482812e-20)
(0.26189878 -0.00041494196 -1.2660527e-19)
(0.26186213 -0.00046801762 -8.8179497e-21)
(0.2616848 -0.00051862213 -2.1451478e-19)
(0.26113855 -0.00056034346 9.8265982e-20)
(0.25954316 -0.00059189152 8.7896461e-20)
(0.25444651 -0.0005706321 1.0419054e-19)
(0.23824529 -0.00045627776 -3.3852963e-20)
(0.20071509 -0.00014735259 4.0230116e-20)
(0.26258633 -3.396306e-05 2.5871854e-18)
(0.26259213 -8.5993781e-05 7.2240232e-19)
(0.26260479 -0.00013711719 2.9794663e-18)
(0.26262388 -0.00019136968 4.7533799e-19)
(0.2626487 -0.00024528655 -1.3624431e-18)
(0.26267708 -0.00029929459 1.5354508e-19)
(0.26270267 -0.00035310243 -1.3411648e-20)
(0.26270848 -0.00040633486 3.7158957e-21)
(0.26265224 -0.00045797299 -1.0113372e-19)
(0.26243199 -0.00050672605 1.6381524e-19)
(0.26179026 -0.00054656345 1.0816301e-19)
(0.25995633 -0.0005740675 1.5424825e-19)
(0.25421177 -0.00054566294 4.15965e-21)
(0.23686046 -0.00042415213 8.9619034e-20)
(0.19864765 -0.0001267576 -2.5042219e-20)
(0.26339335 -3.32814e-05 4.9696929e-19)
(0.26339915 -8.4262741e-05 4.210981e-18)
(0.26341177 -0.0001343551 3.5344975e-18)
(0.26343068 -0.0001875135 1.2447521e-18)
(0.26345493 -0.00024032822 8.5500258e-19)
(0.26348171 -0.00029321054 1.0672973e-19)
(0.2635032 -0.00034584107 2.7489688e-19)
(0.2634993 -0.00039780175 2.6509957e-19)
(0.26342146 -0.00044800829 1.1251291e-20)
(0.26315482 -0.00049492779 7.9482596e-20)
(0.26241041 -0.00053276478 3.2839927e-20)
(0.26031893 -0.00055643964 1.2170596e-19)
(0.2538966 -0.000519773 9.6274715e-20)
(0.23548766 -0.00039274464 1.0266624e-19)
(0.19676807 -0.00010792878 -2.7499335e-21)
(0.26418413 -3.2618312e-05 2.7138539e-18)
(0.26418991 -8.2574226e-05 4.433301e-18)
(0.26420246 -0.00013166021 1.7854216e-18)
(0.26422112 -0.0001837496 1.1708158e-18)
(0.26424465 -0.00023548649 1.2700538e-18)
(0.2642695 -0.00028726512 4.931475e-19)
(0.26428624 -0.00033873796 6.8662808e-19)
(0.26427145 -0.00038944152 7.7848872e-20)
(0.26416998 -0.0004382328 2.6038997e-19)
(0.26385341 -0.00048335173 7.4521713e-20)
(0.26299854 -0.00051908846 1.7734091e-19)
(0.26062878 -0.00053898815 1.1745885e-19)
(0.25350187 -0.00049331965 1.6005483e-19)
(0.2341376 -0.00036197184 5.3247121e-20)
(0.19506692 -9.1079355e-05 9.0134745e-20)
(0.26495914 -3.1980324e-05 3.3708219e-18)
(0.2649649 -8.0945389e-05 4.3009471e-18)
(0.26497734 -0.00012905989 1.4908351e-18)
(0.26499568 -0.00018011622 8.8868895e-19)
(0.26501831 -0.00023081031 1.0371752e-18)
(0.26504088 -0.00028151806 6.9745654e-19)
(0.2650522 -0.00033186392 5.4793021e-19)
(0.2650253 -0.00038133727 -1.7085649e-20)
(0.26489816 -0.00042873842 3.0880947e-19)
(0.26452796 -0.00047209828 1.010453e-19)
(0.26355413 -0.00050565096 1.7311478e-19)
(0.2608835 -0.00052167636 2.229149e-19)
(0.25302971 -0.00046660631 1.4759775e-19)
(0.23282016 -0.00033188327 1.1092725e-19)
(0.19353413 -7.6303785e-05 1.1097868e-19)
(0.26571903 -3.1372765e-05 5.1295356e-18)
(0.26572475 -7.9390278e-05 3.6064705e-18)
(0.26573705 -0.00012657658 -5.0010877e-20)
(0.26575498 -0.00017664472 8.1715312e-19)
(0.26577653 -0.00022633987 7.6145947e-19)
(0.26579644 -0.0002760185 6.1234945e-19)
(0.26580163 -0.0003252772 1.8607714e-19)
(0.26576141 -0.00037355728 3.1014083e-19)
(0.26560652 -0.00041960061 1.4646598e-19)
(0.26517878 -0.00046124612 -6.6864285e-20)
(0.26407657 -0.00049254343 1.047541e-19)
(0.26108058 -0.00050445572 2.1871866e-19)
(0.25248384 -0.00043989699 9.8569493e-20)
(0.23154421 -0.00030262987 7.6726444e-20)
(0.19215888 -6.360973e-05 8.3468118e-20)
(0.26646455 -3.0799673e-05 7.4322602e-18)
(0.26647021 -7.7919711e-05 2.1805366e-18)
(0.26648233 -0.00012422759 3.3497415e-18)
(0.26649975 -0.0001733593 2.0142294e-18)
(0.26652002 -0.00022210618 -5.9517495e-19)
(0.26653688 -0.0002708044 1.1944071e-18)
(0.26653522 -0.00031902283 8.2034472e-19)
(0.26648042 -0.00036615421 1.0024701e-18)
(0.26629564 -0.00041087723 5.6612546e-19)
(0.26580617 -0.00045085191 -1.7511415e-19)
(0.26456508 -0.00047982866 4.3995026e-19)
(0.26121753 -0.00048726982 4.488798e-19)
(0.25186982 -0.00041342264 3.199929e-19)
(0.23031742 -0.00027443217 2.0132423e-19)
(0.1909297 -5.2932833e-05 1.5062714e-19)
(0.26719653 -3.0263687e-05 2.7907845e-18)
(0.26720212 -7.6541023e-05 -1.8304626e-19)
(0.26721401 -0.00012202465 2.7755756e-18)
(0.26723083 -0.00017027641 2.2389719e-18)
(0.2672496 -0.00021813033 6.9145305e-19)
(0.26726299 -0.00026590165 7.0182012e-19)
(0.26725373 -0.0003131315 7.7006095e-19)
(0.26718309 -0.00035916374 8.6319367e-19)
(0.26696618 -0.00040260692 3.7796252e-19)
(0.26641044 -0.00044094906 -5.9551259e-21)
(0.26501868 -0.00046753759 4.6042087e-19)
(0.26129202 -0.00047005901 4.6776327e-19)
(0.25119506 -0.00038738325 4.3101039e-19)
(0.2291461 -0.00024754677 1.932238e-19)
(0.18983455 -4.4145099e-05 7.5567872e-20)
(0.26791589 -2.9765992e-05 -1.4179823e-18)
(0.26792138 -7.5257932e-05 -4.9453199e-19)
(0.26793299 -0.00011997376 6.5449062e-19)
(0.26794908 -0.00016740448 5.5390052e-19)
(0.26796613 -0.00021442312 1.6212937e-18)
(0.26797562 -0.00026132351 1.2331619e-19)
(0.267958 -0.00030761887 2.5420258e-19)
(0.26787018 -0.00035260382 3.8958529e-19)
(0.2676188 -0.00039480805 -4.1930434e-20)
(0.2669918 -0.00043154706 1.2545267e-19)
(0.26543617 -0.00045566687 1.1976158e-19)
(0.2613021 -0.00045276643 8.7463446e-20)
(0.2504687 -0.00036194908 1.573223e-19)
(0.22803501 -0.00022223217 5.0808447e-20)
(0.18886112 -3.7064087e-05 5.237573e-20)
(0.26862352 -2.9306383e-05 3.257476e-18)
(0.2686289 -7.4070661e-05 6.1853682e-19)
(0.26864017 -0.00011807532 2.6729439e-18)
(0.26865542 -0.00016474412 2.2934236e-18)
(0.26867049 -0.00021098533 1.4026021e-18)
(0.26867563 -0.000257071 1.3074715e-18)
(0.26864885 -0.00030248606 1.3984061e-18)
(0.26854251 -0.00034647515 8.8657418e-19)
(0.26825414 -0.00038747924 6.448737e-19)
(0.26755035 -0.00042263245 -2.0198241e-19)
(0.2658161 -0.00044417905 2.4369524e-19)
(0.26124652 -0.00043534493 2.836314e-19)
(0.24970133 -0.00033726333 2.7981657e-19)
(0.22698727 -0.00019871676 3.3829825e-19)
(0.18799711 -3.14664e-05 2.3669779e-19)
(0.26932033 -2.8883461e-05 2.3214154e-18)
(0.26932558 -7.2976356e-05 -3.11211e-19)
(0.26933645 -0.00011632481 1.7076428e-18)
(0.26935072 -0.00016228909 2.1752354e-18)
(0.26936357 -0.0002078089 1.1724404e-18)
(0.26936389 -0.00025313433 1.2283535e-18)
(0.26932713 -0.0002977213 1.4525801e-18)
(0.26920083 -0.00034076321 6.4797989e-19)
(0.2688728 -0.00038060158 5.9529631e-19)
(0.26808605 -0.00041417146 1.4961358e-19)
(0.26615679 -0.00043300583 2.9417188e-19)
(0.26112496 -0.00041776403 2.9524484e-19)
(0.24890441 -0.00031344658 2.6359226e-19)
(0.22600436 -0.00017717261 3.4051585e-19)
(0.18723056 -2.7105588e-05 2.1226591e-19)
(0.27000719 -2.849491e-05 5.1527367e-18)
(0.27001228 -7.1969743e-05 4.2279044e-18)
(0.27002267 -0.00011471384 3.5611768e-18)
(0.27003582 -0.00016002771 2.0003431e-18)
(0.27004618 -0.00020487885 6.0571093e-19)
(0.27004119 -0.00024949516 1.5357869e-18)
(0.2699936 -0.00029330262 9.5791759e-19)
(0.26984584 -0.00033544136 6.7416391e-19)
(0.26947524 -0.00037414208 4.8178829e-19)
(0.2685986 -0.00040611399 2.0478494e-19)
(0.26645635 -0.00042205446 4.0005423e-19)
(0.2609383 -0.00040001524 3.1588088e-19)
(0.24808975 -0.00029060214 2.8191769e-19)
(0.22508629 -0.00015769828 3.5003851e-19)
(0.18655015 -2.3732131e-05 3.0194143e-19)
(0.27068489 -2.8137825e-05 7.722739e-18)
(0.2706898 -7.1043906e-05 4.7338646e-18)
(0.27069965 -0.00011323138 4.9084016e-18)
(0.27071153 -0.00015794462 3.6725177e-18)
(0.2707191 -0.00020217545 1.5900016e-18)
(0.27070829 -0.00024612933 2.4480818e-18)
(0.27064898 -0.00028920108 1.5080169e-18)
(0.27047818 -0.00033047455 1.4205058e-18)
(0.27006181 -0.00036805783 9.8456802e-19)
(0.26908753 -0.00039839812 1.0549673e-19)
(0.26671278 -0.00041121649 6.3737144e-19)
(0.26068881 -0.00038211516 6.9351826e-19)
(0.24726882 -0.00026882042 6.1808785e-19)
(0.22423175 -0.00014031231 5.6849049e-19)
(0.18594537 -2.111215e-05 4.6807866e-19)
(0.27135418 -2.7809011e-05 -1.666161e-19)
(0.27135887 -7.0191041e-05 2.7601383e-18)
(0.2713681 -0.00011186497 2.1758789e-18)
(0.27137855 -0.00015602247 1.7330579e-18)
(0.27138303 -0.00019967637 2.7769612e-18)
(0.27136587 -0.00024300948 1.2060081e-18)
(0.27129391 -0.00028538386 1.1690025e-18)
(0.27109836 -0.000325823 6.5336385e-19)
(0.27063272 -0.00036230005 4.8661278e-19)
(0.26955206 -0.00039095432 1.5551905e-19)
(0.26692403 -0.00040037784 1.8837396e-19)
(0.26038022 -0.00036410565 4.3416833e-19)
(0.24645221 -0.00024818089 4.3337619e-19)
(0.22343841 -0.00012495719 2.2635507e-19)
(0.18540672 -1.9041834e-05 2.4309562e-19)
(0.27201571 -2.7505235e-05 4.0606804e-18)
(0.27202015 -6.9403099e-05 2.0673239e-18)
(0.27202866 -0.00011060176 1.9699246e-18)
(0.27203751 -0.00015424331 2.0265107e-18)
(0.2720386 -0.00019735858 2.1970109e-18)
(0.27201452 -0.00024010733 1.4203342e-18)
(0.27192892 -0.00028181693 1.0288428e-18)
(0.2717068 -0.00032144525 6.3619893e-19)
(0.27118802 -0.00035681747 4.2299175e-19)
(0.2699912 -0.00038370884 7.149236e-20)
(0.26708822 -0.000389429 1.5066286e-19)
(0.26001771 -0.00034605164 3.604004e-19)
(0.24564917 -0.00022875086 4.2495746e-19)
(0.22270325 -0.00011151162 2.5121753e-19)
(0.18492573 -1.7355847e-05 1.6290727e-19)
(0.27267005 -2.7223403e-05 2.3684866e-18)
(0.27267421 -6.8672268e-05 6.0722985e-19)
(0.27268192 -0.00010942927 6.7603448e-19)
(0.27268898 -0.00015258973 2.4838429e-18)
(0.27268634 -0.00019519966 2.2142137e-18)
(0.27265476 -0.00023739527 1.6586284e-18)
(0.27255447 -0.00027846699 8.8365809e-19)
(0.2723038 -0.00031730047 7.3741245e-19)
(0.27172757 -0.00035155884 3.681849e-19)
(0.27040369 -0.00037658611 5.5201602e-19)
(0.26720375 -0.00037827411 2.6545009e-19)
(0.25960771 -0.00032803714 4.25261e-19)
(0.24486735 -0.00021058184 4.1234641e-19)
(0.22202277 -9.9808145e-05 2.8808321e-19)
(0.18449494 -1.5929487e-05 2.042607e-19)
(0.27331772 -2.6960667e-05 1.4739874e-18)
(0.27332155 -6.7991274e-05 3.9048409e-18)
(0.27332837 -0.00010833587 3.0088974e-18)
(0.27333345 -0.00015104547 1.9733751e-18)
(0.27332673 -0.00019317869 1.3048422e-18)
(0.27328702 -0.00023484751 1.3950817e-18)
(0.27317093 -0.0002753027 1.0464259e-18)
(0.27288957 -0.00031334989 7.8623076e-19)
(0.27225107 -0.00034647442 4.1960248e-19)
(0.27078808 -0.00036951039 5.4906885e-19)
(0.26726952 -0.00036683813 2.7897944e-19)
(0.25915765 -0.00031016021 3.9393796e-19)
(0.24411266 -0.00019370464 4.7499686e-19)
(0.22139331 -8.9652406e-05 3.1314967e-19)
(0.1841079 -1.4675692e-05 2.930135e-19)
(0.27395916 -2.6714475e-05 7.5992963e-18)
(0.27396262 -6.7353542e-05 4.4417975e-18)
(0.27396843 -0.00010731104 4.7406112e-18)
(0.27397134 -0.00014959583 2.6241651e-18)
(0.27396016 -0.00019127671 1.2032488e-18)
(0.27391168 -0.00023244055 1.9861021e-18)
(0.2737786 -0.00027229533 1.7190321e-18)
(0.27346419 -0.00030955757 1.5082922e-18)
(0.27275806 -0.00034151676 1.0786057e-18)
(0.27114274 -0.00036240704 2.6473212e-19)
(0.26728512 -0.00035507155 6.2999623e-19)
(0.25867552 -0.00029252749 7.0082155e-19)
(0.24338933 -0.00017812521 7.7771922e-19)
(0.22081116 -8.0841195e-05 7.0621814e-19)
(0.18375901 -1.3538669e-05 4.2007101e-19)
(0.27459475 -2.648259e-05 1.3690912e-18)
(0.2745978 -6.675326e-05 4.4792018e-18)
(0.27460249 -0.0001063455 2.9274058e-18)
(0.274603 -0.0001482278 1.7753276e-18)
(0.27458699 -0.00018947691 2.0016083e-18)
(0.27452902 -0.00023015345 9.5769106e-19)
(0.27437767 -0.00026941895 9.5975521e-19)
(0.27402763 -0.00030589064 8.3330348e-19)
(0.27324789 -0.00033664079 6.4045145e-19)
(0.27146593 -0.0003552038 3.4618112e-19)
(0.26725094 -0.00034295249 3.3657226e-19)
(0.25816956 -0.0002752486 4.9733102e-19)
(0.24270004 -0.00016382254 4.6062383e-19)
(0.22027275 -7.3177111e-05 3.565665e-19)
(0.18344349 -1.2486089e-05 2.6679969e-19)
(0.27522481 -2.6263071e-05 2.9052695e-18)
(0.27522741 -6.6185367e-05 3.8371804e-18)
(0.27523087 -0.00010543114 3.4807577e-18)
(0.27522875 -0.00014693 2.5775261e-18)
(0.27520748 -0.00018776455 2.2841851e-18)
(0.2751393 -0.00022796774 1.3409802e-18)
(0.27496829 -0.00026665041 1.0345828e-18)
(0.27457978 -0.00030231921 6.8333267e-19)
(0.27371976 -0.0003318036 4.9769967e-19)
(0.27175586 -0.00034783257 4.6892678e-19)
(0.26716832 -0.00033048644 4.0180518e-19)
(0.25764777 -0.0002584306 3.8210152e-19)
(0.24204621 -0.0001507494 5.1374464e-19)
(0.21977469 -6.6478884e-05 4.1319297e-19)
(0.18315725 -1.1501421e-05 3.292597e-19)
(0.27584964 -2.6054261e-05 1.1147977e-18)
(0.27585173 -6.5645511e-05 5.4704694e-19)
(0.27585383 -0.00010456098 1.615311e-18)
(0.27584885 -0.00014569263 2.5053702e-18)
(0.27582189 -0.00018612688 2.6148206e-18)
(0.2757427 -0.00022586725 1.5820356e-18)
(0.27555053 -0.00026396905 1.1567625e-18)
(0.27512041 -0.00029881615 6.5445959e-19)
(0.27417268 -0.00032696405 5.5813826e-19)
(0.27201082 -0.00034023144 8.5216497e-19)
(0.26703956 -0.00031770398 5.1282209e-19)
(0.25711762 -0.00024217267 4.4148103e-19)
(0.24142819 -0.00013883591 4.449856e-19)
(0.21931381 -6.0587301e-05 5.31885e-19)
(0.18289682 -1.0577469e-05 3.4527198e-19)
(0.27646948 -2.5854749e-05 2.8179419e-18)
(0.27647102 -6.5129981e-05 4.6073548e-18)
(0.27647162 -0.00010372909 3.4789596e-18)
(0.27646352 -0.0001445073 2.3995277e-18)
(0.2764304 -0.00018455289 1.6724635e-18)
(0.27633935 -0.00022383791 1.5360483e-18)
(0.27612438 -0.00026135648 1.2582236e-18)
(0.27564919 -0.00029535665 9.2658294e-19)
(0.27460555 -0.00032208225 7.0968873e-19)
(0.27222923 -0.0003323472 8.1874542e-19)
(0.26686787 -0.00030465719 4.3779236e-19)
(0.25658579 -0.00022656125 6.2224914e-19)
(0.2408456 -0.00012799525 4.5336856e-19)
(0.21888719 -5.5367361e-05 5.8832075e-19)
(0.18265925 -9.7115776e-06 3.7718357e-19)
(0.27708455 -2.5663344e-05 8.4279544e-18)
(0.27708548 -6.4635631e-05 6.1761514e-18)
(0.27708444 -0.0001029304 5.3751506e-18)
(0.27707295 -0.00014336686 4.1767253e-18)
(0.27703318 -0.00018303314 1.9795183e-18)
(0.27692935 -0.00022186743 2.386898e-18)
(0.2766898 -0.00025879623 1.9785695e-18)
(0.27616569 -0.00029191777 1.620883e-18)
(0.27501711 -0.00031711915 1.2372126e-18)
(0.27240981 -0.00032413773 5.5843311e-19)
(0.26665729 -0.00029141516 6.7381072e-19)
(0.256058 -0.00021166602 8.9055245e-19)
(0.24029748 -0.00011813046 7.2019313e-19)
(0.21849214 -5.0707636e-05 7.5215771e-19)
(0.18244204 -8.9025304e-06 5.217984e-19)
(0.27769504 -2.5479044e-05 1.3783555e-18)
(0.27769529 -6.4159806e-05 4.8332055e-18)
(0.27769247 -0.00010216064 2.8402457e-18)
(0.27767729 -0.00014226521 2.8879504e-18)
(0.27763035 -0.0001815595 2.8512433e-18)
(0.27751275 -0.00021994503 1.6205679e-18)
(0.27724666 -0.00025627339 1.2158568e-18)
(0.27666938 -0.00028847796 9.3571196e-19)
(0.275406 -0.00031203633 6.1650316e-19)
(0.27255164 -0.0003155742 4.0204391e-19)
(0.26641246 -0.00027805924 4.618466e-19)
(0.25553894 -0.00019753709 3.4825013e-19)
(0.23978254 -0.00010914111 3.7505207e-19)
(0.21812621 -4.6517853e-05 2.6534699e-19)
(0.18224308 -8.1488509e-06 3.0091283e-19)
(0.27830111 -2.5301006e-05 3.2835598e-18)
(0.27830062 -6.3700269e-05 4.1402868e-18)
(0.27829586 -0.0001014162 2.294235e-18)
(0.2782767 -0.00014119716 2.3117764e-18)
(0.278222 -0.00018012493 2.7121351e-18)
(0.27808956 -0.00021806116 1.7266654e-18)
(0.2777948 -0.00025377436 1.3449376e-18)
(0.27715962 -0.0002850166 8.1185859e-19)
(0.27577079 -0.00030679609 5.218934e-19)
(0.27265429 -0.00030664248 4.44679e-19)
(0.26613848 -0.00026467812 5.4817626e-19)
(0.2550323 -0.00018420367 5.1738596e-19)
(0.23929925 -0.00010092914 4.2750897e-19)
(0.21778713 -4.2725635e-05 3.7015524e-19)
(0.18206056 -7.4481383e-06 2.9161686e-19)
(0.27890291 -2.5128516e-05 1.3959463e-18)
(0.27890162 -6.3255127e-05 1.03616e-18)
(0.27889474 -0.00010069401 1.1472809e-18)
(0.27887126 -0.00014015826 2.4142529e-18)
(0.27880821 -0.00017872332 2.5688671e-18)
(0.27865976 -0.00021620724 1.4576028e-18)
(0.27833397 -0.00025128651 1.3103714e-18)
(0.27763569 -0.00028151344 8.8773025e-19)
(0.27611001 -0.00030136188 8.7110826e-19)
(0.2727179 -0.00029734385 9.6967802e-19)
(0.26584062 -0.00025136316 6.4512832e-19)
(0.25454084 -0.00017167438 6.5565989e-19)
(0.23884602 -9.3403145e-05 4.7860546e-19)
(0.21747286 -3.9273077e-05 4.8996141e-19)
(0.18189296 -6.7970277e-06 3.655667e-19)
(0.27950056 -2.4960972e-05 -1.4486398e-18)
(0.2794984 -6.2822774e-05 3.7810875e-18)
(0.27948922 -9.9991432e-05 2.676781e-18)
(0.27946108 -0.00013914466 1.531194e-18)
(0.279389 -0.00017734922 2.2047796e-18)
(0.27922329 -0.00021437542 8.9020112e-19)
(0.27886389 -0.00024879793 6.4464641e-19)
(0.27809674 -0.00027794828 5.7804279e-19)
(0.27642222 -0.0002956992 4.3246225e-19)
(0.27274323 -0.00028769473 8.0506825e-19)
(0.2655241 -0.00023820405 3.894463e-19)
(0.25406651 -0.00015993911 2.1706286e-19)
(0.23842119 -8.6481035e-05 7.1193776e-20)
(0.21718151 -3.61136e-05 1.6841964e-19)
(0.18173897 -6.191468e-06 2.4284593e-19)
(0.28009418 -2.4797856e-05 7.7256441e-19)
(0.28009107 -6.2401833e-05 4.3296992e-18)
(0.28007941 -9.9306213e-05 4.803985e-18)
(0.28004623 -0.00013815299 2.0096349e-18)
(0.27996442 -0.00017599777 1.8837842e-18)
(0.27978006 -0.00021255837 1.3384525e-18)
(0.2793842 -0.00024629715 8.1901417e-19)
(0.27854186 -0.00027430051 5.0650294e-19)
(0.27670605 -0.00028977675 4.0954429e-19)
(0.27273166 -0.00027772559 5.2119037e-19)
(0.26519392 -0.00022528489 1.7417794e-19)
(0.25361059 -0.00014897204 2.0584432e-19)
(0.23802316 -8.0091214e-05 4.7819018e-20)
(0.21691137 -3.3209326e-05 -4.7945828e-20)
(0.18159747 -5.6270917e-06 1.8591611e-19)
(0.28068388 -2.4638721e-05 1.106132e-18)
(0.28067974 -6.1991114e-05 3.3781543e-18)
(0.28066539 -9.8636369e-05 3.4132103e-18)
(0.28062676 -0.00013718022 2.1325661e-18)
(0.28053445 -0.00017466447 1.5575481e-18)
(0.28032993 -0.00021074911 1.1461055e-18)
(0.27989449 -0.00024377295 8.8742193e-19)
(0.27897002 -0.0002705489 3.5997717e-19)
(0.27696025 -0.00028356785 3.8653295e-19)
(0.27268518 -0.00026747914 5.0934508e-19)
(0.26485469 -0.0002126809 1.7704186e-19)
(0.25317379 -0.00013873546 1.3156995e-19)
(0.23765034 -7.4172497e-05 1.4605436e-19)
(0.2166609 -3.0529016e-05 8.0668607e-20)
(0.18146749 -5.099559e-06 1.0290564e-19)
(0.28126974 -2.4483172e-05 2.1945943e-18)
(0.28126449 -6.1589566e-05 6.1789654e-18)
(0.28124722 -9.7980136e-05 2.9722404e-18)
(0.28120271 -0.00013622364 7.0634927e-19)
(0.28109907 -0.00017334514 5.4006506e-19)
(0.28087275 -0.00020894083 3.3880078e-19)
(0.28039427 -0.00024121406 -6.047288e-20)
(0.27938014 -0.0002666715 7.4989527e-20)
(0.27718382 -0.0002770519 -6.9048589e-20)
(0.27260633 -0.0002570081 6.7073462e-20)
(0.26451052 -0.00020045585 -2.700595e-19)
(0.25275643 -0.00012918376 -3.5837951e-19)
(0.23730122 -6.8673257e-05 -3.6761171e-19)
(0.21642866 -2.8046545e-05 -2.4480096e-19)
(0.18134818 -4.6048048e-06 -1.0350185e-19)
(0.28185185 -2.4330856e-05 3.9675428e-18)
(0.28184539 -6.1196251e-05 6.2671937e-18)
(0.28182498 -9.7335908e-05 3.5192807e-18)
(0.28177412 -0.00013528068 1.2380998e-18)
(0.28165823 -0.00017203573 6.9845108e-19)
(0.2814083 -0.00020712677 2.5566553e-19)
(0.28088299 -0.00023860899 -2.8921909e-19)
(0.27977106 -0.00026264569 1.8044349e-19)
(0.27737601 -0.00027021573 -2.4158462e-20)
(0.27249806 -0.00024637256 -2.0620314e-20)
(0.26416497 -0.00018866039 -2.7806444e-19)
(0.2523585 -0.0001202672 -5.5136097e-19)
(0.23697438 -6.3550109e-05 -2.9479083e-19)
(0.21621337 -2.5739803e-05 -2.8801761e-19)
(0.18123881 -4.1391971e-06 -1.0115236e-19)
(0.28243029 -2.4181449e-05 6.5827128e-18)
(0.28242252 -6.0810308e-05 5.6178369e-18)
(0.28239871 -9.6702198e-05 3.1997433e-18)
(0.28234099 -0.00013434892 2.3768805e-18)
(0.28221186 -0.00017073227 1.7800035e-18)
(0.28193636 -0.00020530013 7.9767781e-19)
(0.28136003 -0.00023594579 5.2195865e-19)
(0.2801416 -0.00025844846 5.7483255e-19)
(0.27753642 -0.00026305461 4.6610179e-19)
(0.27236366 -0.00023563724 1.5676506e-19)
(0.26382105 -0.00017733134 2.0529007e-19)
(0.25197976 -0.00011193518 -8.6595422e-20)
(0.23666845 -5.8766475e-05 1.1115312e-19)
(0.21601387 -2.3589908e-05 2.001734e-19)
(0.1811387 -3.6995918e-06 6.5802146e-20)
(0.28300512 -2.4034648e-05 3.7999873e-18)
(0.28299594 -6.0430938e-05 1.8640706e-18)
(0.28296845 -9.6077597e-05 2.7730946e-18)
(0.28290332 -0.00013342601 1.9302568e-18)
(0.28275987 -0.00016943078 1.8043067e-18)
(0.28245663 -0.00020345398 1.060662e-18)
(0.28182471 -0.00023321186 7.2651999e-19)
(0.28049056 -0.0002540569 3.9007093e-19)
(0.27766504 -0.00025557284 6.0722391e-19)
(0.27220658 -0.00022486879 5.1430343e-19)
(0.26348123 -0.0001664919 6.0429692e-20)
(0.25161982 -0.00010413861 2.1547721e-19)
(0.23638216 -5.4291219e-05 4.8348611e-20)
(0.21582908 -2.158065e-05 1.7367001e-19)
(0.18104728 -3.2833375e-06 5.8202201e-20)
(0.2835764 -2.3890167e-05 1.8602458e-18)
(0.28356569 -6.0057379e-05 2.492637e-18)
(0.28353424 -9.546074e-05 2.8213739e-18)
(0.2834611 -0.00013250962 2.529383e-18)
(0.28330215 -0.00016812719 2.1977118e-18)
(0.28296879 -0.00020158114 1.3506996e-18)