/*--------------------------------*- C++ -*----------------------------------*\
| =========                 |                                                 |
| \\      /  F ield         | OpenFOAM: The Open Source CFD Toolbox           |
|  \\    /   O peration     | Version:  2506                                  |
|   \\  /    A nd           | Website:  www.openfoam.com                      |
|    \\/     M anipulation  |                                                 |
\*---------------------------------------------------------------------------*/
FoamFile
{
    version     2.0;
    format      ascii;
    arch        "LSB;label=32;scalar=64";
    class       volScalarField;
    location    "5000/water";
    object      alphat;
}
// * * * * * * * * * * * * * * * * * * * * * * * * * * * * * * * * * * * * * //

dimensions      [1 -1 -1 0 0 0 0];

internalField   nonuniform List<scalar> 
2600
(
0.040489031
0.04048893
0.040488932
0.040488969
0.04048893
0.040488424
0.040485257
0.04046703
0.040362559
0.039762099
0.036475623
0.024118064
0.014862723
0.039376404
0.039376463
0.039376584
0.03937667
0.03937627
0.039373342
0.039357935
0.03928206
0.038918252
0.037247647
0.030707814
0.017504579
0.016810247
0.03845331
0.038453299
0.038453385
0.038453188
0.038451259
0.038441479
0.038397507
0.038208927
0.037432867
0.034484227
0.025768479
0.01464355
0.017680736
0.037674097
0.037673994
0.037673876
0.037672833
0.03766736
0.037643826
0.037549741
0.037190974
0.035896577
0.031717985
0.022022178
0.013507107
0.017935556
0.037006829
0.037006634
0.03700605
0.037003229
0.036991211
0.03694503
0.036777672
0.036201229
0.034343725
0.029136321
0.019390213
0.01332192
0.01787019
0.036428097
0.036427705
0.036426239
0.036420305
0.036397905
0.036319194
0.03605724
0.035231095
0.03281421
0.026833154
0.017684561
0.01376901
0.017658004
0.035920433
0.035919673
0.03591673
0.035905979
0.035868817
0.035747845
0.035374204
0.034281783
0.031338745
0.024847734
0.016751764
0.014701365
0.017395975
0.035470606
0.03546924
0.035464057
0.035446499
0.035390052
0.035218253
0.034721129
0.033357857
0.029935921
0.02320089
0.016491475
0.016024754
0.017137191
0.035068412
0.03506614
0.035057811
0.035031314
0.034951338
0.034722033
0.034094772
0.032463227
0.028616047
0.021918168
0.016839593
0.01764423
0.016909598
0.034705855
0.034702323
0.034689851
0.034652315
0.034545228
0.034254009
0.03349406
0.031599319
0.027389013
0.021039007
0.017742706
0.01944683
0.016725717
0.034376582
0.0343714
0.034353768
0.03430331
0.034166516
0.033811296
0.032918607
0.030765036
0.026274288
0.020612421
0.019134169
0.021310298
0.0165878
0.034075484
0.034068256
0.034044512
0.033979658
0.033811775
0.033392551
0.032367695
0.029958513
0.025310237
0.020682514
0.02092045
0.023125093
0.01649134
0.03379842
0.033788771
0.033758129
0.033677993
0.033478994
0.032997353
0.031839672
0.029180919
0.024557973
0.021270679
0.022983308
0.024813263
0.016428198
0.033542011
0.033529635
0.033491576
0.033396025
0.033167279
0.032625685
0.031331906
0.02844226
0.024095308
0.02236241
0.02519592
0.026333969
0.016389375
0.033303501
0.033288203
0.033242589
0.033132389
0.0328766
0.032277488
0.030841496
0.027768047
0.024001078
0.023903802
0.027443847
0.027676786
0.016366908
0.033080659
0.033062404
0.03300959
0.032886524
0.032607559
0.031952311
0.030367144
0.027204004
0.02433601
0.025808536
0.029640409
0.028850257
0.01635471
0.032871707
0.032850677
0.032791627
0.032658586
0.032361164
0.031649138
0.029912405
0.026815113
0.025128026
0.027972561
0.031731261
0.029871995
0.016348606
0.032675278
0.032651931
0.032588332
0.032449362
0.032138606
0.031366538
0.029490156
0.026676983
0.026366619
0.030291378
0.033689748
0.030762439
0.016345973
0.032490392
0.032465523
0.0323999
0.032260198
0.031941021
0.031103392
0.029127149
0.026861558
0.028006318
0.032674377
0.035508201
0.031541613
0.016345289
0.03231644
0.032291251
0.032227075
0.032092906
0.0317693
0.030860473
0.028866522
0.027422392
0.02997661
0.035052625
0.037189756
0.032227633
0.016345749
0.032153193
0.032129365
0.032071151
0.03194966
0.031623986
0.030643052
0.028765901
0.028384666
0.032194874
0.037379729
0.038742713
0.03283612
0.016346971
0.032000817
0.031980587
0.031933965
0.031832869
0.031505423
0.030464306
0.028890209
0.029742269
0.034578896
0.03962804
0.040177389
0.033380111
0.016348812
0.031859898
0.031846136
0.031817892
0.031745018
0.031414332
0.030348688
0.029300796
0.03146131
0.037056244
0.041783222
0.041504536
0.033870256
0.016351246
0.031731488
0.031727775
0.031725824
0.031688525
0.031353059
0.03033369
0.030044464
0.033487925
0.039569151
0.043839375
0.042734578
0.034315152
0.016354289
0.031617156
0.031627852
0.031661123
0.031665646
0.031327616
0.030468391
0.031145812
0.035757862
0.042075207
0.045795594
0.043877213
0.034721702
0.016357969
0.031519059
0.031549348
0.031627545
0.031678558
0.031350386
0.030808117
0.032604584
0.038205563
0.044545298
0.047653852
0.044941234
0.035095454
0.016362308
0.03144002
0.031495925
0.031629136
0.031729781
0.031442847
0.031406233
0.034397783
0.040771061
0.046960465
0.04941777
0.045934484
0.035440886
0.01636731
0.031383622
0.031471952
0.031670108
0.031823119
0.03163718
0.032305488
0.03648515
0.043403916
0.049308923
0.051091864
0.046863895
0.035761637
0.016372969
0.03135431
0.031482518
0.031754745
0.031965285
0.031975485
0.033531428
0.038816233
0.046064361
0.051583769
0.052681066
0.047735561
0.036060692
0.016379266
0.031357497
0.031533412
0.031887427
0.032168112
0.032505946
0.035089409
0.041337344
0.04872249
0.053781403
0.054190403
0.048554837
0.036340517
0.016386174
0.03139966
0.031631057
0.032072921
0.032450915
0.033276474
0.036965351
0.043997167
0.051356522
0.055900493
0.055624809
0.04932644
0.036603249
0.016393659
0.031488426
0.031782428
0.03231711
0.032842099
0.03432751
0.039129414
0.04675033
0.0539509
0.057941207
0.056988872
0.050054079
0.036848496
0.016401672
0.031632621
0.031994973
0.032628308
0.033378943
0.035685987
0.041541299
0.049558965
0.056494683
0.059904718
0.058286905
0.050741227
0.037078061
0.016410157
0.031842264
0.03227662
0.033019162
0.034104839
0.037361927
0.044155835
0.052392714
0.058980325
0.061792815
0.059522757
0.051390027
0.037293993
0.01641906
0.032128529
0.032636021
0.033508771
0.03506418
0.039348109
0.046927805
0.055227859
0.061402782
0.063607642
0.060699937
0.052002677
0.037497696
0.016428334
0.032503669
0.033083204
0.034124296
0.036296099
0.041622403
0.049815358
0.058046135
0.063758861
0.065351546
0.061821638
0.05258258
0.037690193
0.016437945
0.032981001
0.033630796
0.034901058
0.037828732
0.044151815
0.05278187
0.060833586
0.066046679
0.067026701
0.0628895
0.053132468
0.03787253
0.016447871
0.033575094
0.034295804
0.035880366
0.03967545
0.046897156
0.055796506
0.0635796
0.068265332
0.068635569
0.063907355
0.053654302
0.038045473
0.016458088
0.034302368
0.035101605
0.03710507
0.041833722
0.049817348
0.058833935
0.066276154
0.070414394
0.070179109
0.064878398
0.054149995
0.038209783
0.016468569
0.03518228
0.036079356
0.038613765
0.044286508
0.052872738
0.061873599
0.068917177
0.072494027
0.071660189
0.06580521
0.054621165
0.038366085
0.016479288
0.036239046
0.037267816
0.040435161
0.047005441
0.05602718
0.064898919
0.071498029
0.074503822
0.073081484
0.066690101
0.055069327
0.038514917
0.016490218
0.037503423
0.038710796
0.042584053
0.04995487
0.059248943
0.067896468
0.074015186
0.076444644
0.074445478
0.06753512
0.05549582
0.038656743
0.016501334
0.039013508
0.040452278
0.045059728
0.053095841
0.062510853
0.07085534
0.076465328
0.078317614
0.075754307
0.068342169
0.055901827
0.038791954
0.01651261
0.040813314
0.042530171
0.047846821
0.056389308
0.065789815
0.073766512
0.078846469
0.080124255
0.07700987
0.06911294
0.056288386
0.038920882
0.016524019
0.042948325
0.044970332
0.050918063
0.059798386
0.069066326
0.076621972
0.081156919
0.081865796
0.078213926
0.069848943
0.056656395
0.039043805
0.016535536
0.04545838
0.047782296
0.054237949
0.06328939
0.072323491
0.079415208
0.083396343
0.083543328
0.07936802
0.070551491
0.057006629
0.039160949
0.016547136
0.048369489
0.05095756
0.057766458
0.066832237
0.075546553
0.082140742
0.085564132
0.085157807
0.080473484
0.071221708
0.057339735
0.039272496
0.016558794
0.051686909
0.054470402
0.061462104
0.070399916
0.078721985
0.084794907
0.087659691
0.086709988
0.081531429
0.071860532
0.057656248
0.039378584
0.016570485
0.055391467
0.058280533
0.065283663
0.073967535
0.081839602
0.087374101
0.08968232
0.088200392
0.082542726
0.072468715
0.057956586
0.039479308
0.016582185
0.059440022
0.062336488
0.069190788
0.077513996
0.084890564
0.089874872
0.09163114
0.089629277
0.083508001
0.073046819
0.058241061
0.039574723
0.016593867
0.063769455
0.066579708
0.073146285
0.081021464
0.087866726
0.092293798
0.093505042
0.090996616
0.084427622
0.073595223
0.058509871
0.039664845
0.016605507
0.068304139
0.070949112
0.077116107
0.084473701
0.090760474
0.094627424
0.095302666
0.092302086
0.085301702
0.074114118
0.058763112
0.039749649
0.016617076
0.072963929
0.075384317
0.081068511
0.087855764
0.09356461
0.096872238
0.097022402
0.093545079
0.086130105
0.074603513
0.059000771
0.039829073
0.016628545
0.077671178
0.079828328
0.084974017
0.091153804
0.096272311
0.099024694
0.098662422
0.09472472
0.086912458
0.075063248
0.059222739
0.039903017
0.016639885
0.082355805
0.084229544
0.088805507
0.094354979
0.098877139
0.10108128
0.10022075
0.095839925
0.087648185
0.075493006
0.059428815
0.039971349
0.016651062
0.086958163
0.088543045
0.092538458
0.097447474
0.1013731
0.10303862
0.10169535
0.096889464
0.088336554
0.075892346
0.059618725
0.040033907
0.016662041
0.091430044
0.092731233
0.096151218
0.10042059
0.10375476
0.10489357
0.10308424
0.09787205
0.088976736
0.07626074
0.059792135
0.040090512
0.016672786
0.095734329
0.096763904
0.099625256
0.1032649
0.10601732
0.10664338
0.10438563
0.098786445
0.089567879
0.076597614
0.059948685
0.040140973
0.016683256
0.099843877
0.10061789
0.10294532
0.10597236
0.10815676
0.10828578
0.10559801
0.099631562
0.090109188
0.07690241
0.060088013
0.040185101
0.016693412
0.10374005
0.10427638
0.10609944
0.10853646
0.11016992
0.10981912
0.10672029
0.10040657
0.090600011
0.077174639
0.060209791
0.040222726
0.016703211
0.10741121
0.10772815
0.10907889
0.11095231
0.11205461
0.11124239
0.10775189
0.10111098
0.091039913
0.077413939
0.060313761
0.040253708
0.016712613
0.11085132
0.11096668
0.11187789
0.1132166
0.1138096
0.11255535
0.10869278
0.10174473
0.091428747
0.07762013
0.06039977
0.040277955
0.016721579
0.11405869
0.11398936
0.1144934
0.11532765
0.11543468
0.11375849
0.10954354
0.10230822
0.091766707
0.077793258
0.060467793
0.040295434
0.01673007
0.11703505
0.11679669
0.11692475
0.11728523
0.1169306
0.11485304
0.11030537
0.10280236
0.092054362
0.077933625
0.060517965
0.040306182
0.016738054
0.11978466
0.11939167
0.11917331
0.11909053
0.11829903
0.11584096
0.11098006
0.10322855
0.092292673
0.078041814
0.060550588
0.040310313
0.016745503
0.12231368
0.12177924
0.12124217
0.12074594
0.11954251
0.11672484
0.11156999
0.10358868
0.09248299
0.078118691
0.060566144
0.04030802
0.016752392
0.12462968
0.12396579
0.12313581
0.12225491
0.12066433
0.11750791
0.11207803
0.10388507
0.092627034
0.078165399
0.060565288
0.040299575
0.016758707
0.12674123
0.12595883
0.12485982
0.12362181
0.12166844
0.11819388
0.11250749
0.10412048
0.092726864
0.07818334
0.060548841
0.040285322
0.016764435
0.12865756
0.12776661
0.12642065
0.12485175
0.12255935
0.1187869
0.11286207
0.10429796
0.092784835
0.078174145
0.060517771
0.040265672
0.016769575
0.13038837
0.12939796
0.1278254
0.12595041
0.12334201
0.11929149
0.1131458
0.10442088
0.092803549
0.078139637
0.060473173
0.040241089
0.01677413
0.13194357
0.13086202
0.12908162
0.12692394
0.12402173
0.11971243
0.1133629
0.1044928
0.092785801
0.078081799
0.060416241
0.04021208
0.016778109
0.13333319
0.13216811
0.13019717
0.1277788
0.12460409
0.1200547
0.11351778
0.10451746
0.092734525
0.078002723
0.060348242
0.040179182
0.016781528
0.13456725
0.13332562
0.13118007
0.12852166
0.12509482
0.12032339
0.11361494
0.10449866
0.092652743
0.077904576
0.06027049
0.040142945
0.016784407
0.13565561
0.13434386
0.13203843
0.12915929
0.12549975
0.12052366
0.11365892
0.10444025
0.092543516
0.077789557
0.060184316
0.040103926
0.016786771
0.13660799
0.13523203
0.13278028
0.12969853
0.12582473
0.12066066
0.11365425
0.10434608
0.092409899
0.077659862
0.060091044
0.040062674
0.016788648
0.13743385
0.13599912
0.13341358
0.13014613
0.1260756
0.12073951
0.11360539
0.10421992
0.092254902
0.077517652
0.059991973
0.040019719
0.016790068
0.13814233
0.13665386
0.13394613
0.13050878
0.1262581
0.12076522
0.11351672
0.10406548
0.092081456
0.077365025
0.059888354
0.039975566
0.016791065
0.13874229
0.13720471
0.13438549
0.130793
0.12637782
0.12074267
0.11339247
0.10388632
0.091892387
0.077203993
0.059781376
0.039930688
0.016791671
0.13924221
0.1376598
0.134739
0.13100513
0.12644024
0.12067659
0.11323672
0.10368586
0.091690389
0.077036463
0.059672156
0.039885521
0.016791921
0.13965021
0.13802694
0.1350137
0.1311513
0.12645062
0.12057154
0.1130534
0.10346736
0.091478013
0.076864223
0.059561728
0.039840463
0.01679185
0.13997405
0.13831356
0.13521637
0.13123739
0.12641402
0.12043187
0.11284622
0.1032339
0.091257647
0.076688933
0.059451036
0.039795868
0.016791489
0.14022107
0.13852675
0.13535345
0.13126903
0.12633527
0.12026173
0.11261869
0.10298837
0.091031513
0.076512118
0.059340934
0.039752047
0.016790873
0.14039825
0.13867322
0.13543107
0.1312516
0.12621899
0.12006504
0.11237413
0.10273345
0.090801662
0.076335164
0.059232184
0.039709271
0.016790032
0.14051218
0.13875933
0.13545503
0.13119017
0.12606953
0.11984551
0.11211562
0.10247166
0.090569969
0.076159318
0.059125455
0.039667771
0.016788996
0.14056906
0.13879105
0.13543083
0.13108957
0.12589102
0.11960661
0.11184606
0.10220528
0.090338134
0.075985693
0.059021327
0.039627736
0.016787793
0.14057473
0.13877402
0.13536363
0.13095433
0.12568732
0.11935161
0.11156812
0.10193641
0.090107683
0.075815252
0.058920249
0.039589108
0.016786449
0.14053465
0.13871352
0.13525829
0.13078872
0.12546208
0.11908352
0.11128424
0.10166696
0.089879971
0.075648818
0.058822576
0.039551838
0.016784984
0.14045395
0.13861451
0.13511935
0.13059672
0.12521868
0.11880516
0.11099669
0.10139863
0.089656168
0.075487029
0.058728329
0.039516217
0.016783417
0.1403374
0.13848158
0.13495106
0.13038207
0.12496028
0.11851911
0.11070751
0.10113295
0.0894373
0.075330465
0.05863785
0.03948237
0.016781769
0.14018945
0.13831906
0.13475739
0.13014824
0.1246898
0.11822776
0.11041855
0.10087125
0.089224158
0.075179252
0.058551572
0.03945039
0.01678006
0.14001423
0.13813092
0.134542
0.12989845
0.12440994
0.11793326
0.11013145
0.10061467
0.089017373
0.075034084
0.058469642
0.039420326
0.016778308
0.13981558
0.13792088
0.13430831
0.12963567
0.12412317
0.11763759
0.10984768
0.10036419
0.08881749
0.074895423
0.058392186
0.039392211
0.016776532
0.13959704
0.13769237
0.13405946
0.12936265
0.12383177
0.1173425
0.10956848
0.10012045
0.088625307
0.074763516
0.058319285
0.039366057
0.016774745
0.13936188
0.13744853
0.13379836
0.1290819
0.12353777
0.11704954
0.10929488
0.099884422
0.088441292
0.07463854
0.058250975
0.039341855
0.016772961
0.13911311
0.13719229
0.13352767
0.12879571
0.12324303
0.11676006
0.10902787
0.099656876
0.088265789
0.074520609
0.058187254
0.039319578
0.016771194
0.13885349
0.1369263
0.13324981
0.12850615
0.12294915
0.11647522
0.10876854
0.099438367
0.088099051
0.074409779
0.058128086
0.039299184
0.016769451
0.13858554
0.13665297
0.13296697
0.12821504
0.12265752
0.11619634
0.10851768
0.099229332
0.087941247
0.074306052
0.058073402
0.039280622
0.016767743
0.13831152
0.13637449
0.13268108
0.12792401
0.12236968
0.11592447
0.10827595
0.099030105
0.087792472
0.07420938
0.058023112
0.039263829
0.016766077
0.13803347
0.13609278
0.13239395
0.12763473
0.12208691
0.11566051
0.10804389
0.098840925
0.087652752
0.074119671
0.057977097
0.039248736
0.016764459
0.13775324
0.13580967
0.13210729
0.12734866
0.12181032
0.11540522
0.10782192
0.098661946
0.087522053
0.074036797
0.057935225
0.039235268
0.016762894
0.13747255
0.13552684
0.13182263
0.12706709
0.1215409
0.11515923
0.10761037
0.098493244
0.087400286
0.073960597
0.057897347
0.039223346
0.016761387
0.13719296
0.13524581
0.13154137
0.12679116
0.12127947
0.11492306
0.10740947
0.098334826
0.087287317
0.073890882
0.057863301
0.03921289
0.016759942
0.1369159
0.13496795
0.13126472
0.12652187
0.12102676
0.11469714
0.10721937
0.098186637
0.087182968
0.073827441
0.057832917
0.039203815
0.016758559
0.13664264
0.13469448
0.13099379
0.1262601
0.12078335
0.11448177
0.10704013
0.098048563
0.087087025
0.073770042
0.057806018
0.03919604
0.016757243
0.13637432
0.13442648
0.13072951
0.12600658
0.12054975
0.11427719
0.10687176
0.097920445
0.086999246
0.073718442
0.057782423
0.039189482
0.016755993
0.13611193
0.13416491
0.13047273
0.12576195
0.12032633
0.11408353
0.1067142
0.097802076
0.08691936
0.073672381
0.057761949
0.039184057
0.016754811
0.13585636
0.1339106
0.13022414
0.12552674
0.1201134
0.11390087
0.10656733
0.097693216
0.086847078
0.073631595
0.05774441
0.039179685
0.016753697
0.13560838
0.13366427
0.12998436
0.12530136
0.11991117
0.1137292
0.10643098
0.097593589
0.08678209
0.073595812
0.057729623
0.039176288
0.01675265
0.13536863
0.13342652
0.12975388
0.12508615
0.11971976
0.11356848
0.10630494
0.097502892
0.086724076
0.073564757
0.057717405
0.039173788
0.016751671
0.13513765
0.13319785
0.1295331
0.12488135
0.11953925
0.11341859
0.10618895
0.0974208
0.086672705
0.073538154
0.057707577
0.039172113
0.016750758
0.13491591
0.13297867
0.12932234
0.12468714
0.11936962
0.11327935
0.10608273
0.097346969
0.086627637
0.073515729
0.057699963
0.039171189
0.016749909
0.13470375
0.13276932
0.12912183
0.12450361
0.11921082
0.11315056
0.10598598
0.097281041
0.086588532
0.073497208
0.057694391
0.039170949
0.016749125
0.13450146
0.13257003
0.12893173
0.1243308
0.11906274
0.11303198
0.10589834
0.097222645
0.086555046
0.073482323
0.057690697
0.039171327
0.016748402
0.13430924
0.13238096
0.12875213
0.12416866
0.1189252
0.11292333
0.10581947
0.097171404
0.086526837
0.073470811
0.05768872
0.03917226
0.01674774
0.13412721
0.13220222
0.12858306
0.12401713
0.118798
0.11282428
0.10574899
0.097126936
0.086503563
0.073462416
0.057688306
0.039173691
0.016747136
0.13395545
0.13203385
0.12842447
0.12387606
0.1186809
0.11273452
0.10568652
0.097088855
0.08648489
0.073456886
0.057689306
0.039175561
0.016746587
0.13379394
0.13187581
0.12827629
0.12374527
0.11857362
0.11265367
0.10563165
0.097056776
0.086470488
0.07345398
0.057691579
0.039177819
0.016746092
0.13364265
0.13172803
0.12813837
0.12362455
0.11847585
0.11258137
0.105584
0.097030317
0.086460034
0.073453465
0.05769499
0.039180413
0.016745649
0.13350146
0.13159039
0.12801055
0.12351365
0.11838727
0.11251724
0.10554315
0.097009098
0.086453213
0.073455115
0.057699411
0.039183298
0.016745255
0.13337024
0.13146272
0.12789261
0.12341227
0.11830752
0.11246087
0.10550871
0.096992748
0.086449721
0.073458715
0.057704719
0.039186428
0.016744907
0.1332488
0.13134482
0.12778428
0.12332012
0.11823623
0.11241186
0.10548026
0.096980901
0.086449262
0.073464059
0.0577108
0.039189762
0.016744604
0.13313692
0.13123644
0.12768531
0.12323686
0.11817302
0.1123698
0.10545741
0.096973202
0.086451553
0.073470952
0.057717547
0.039193263
0.016744342
0.13303435
0.13113732
0.12759539
0.12316213
0.11811751
0.11233429
0.10543976
0.096969308
0.086456324
0.073479209
0.057724857
0.039196894
0.016744119
0.1329408
0.13104718
0.12751418
0.12309558
0.11806929
0.11230493
0.10542694
0.096968884
0.086463315
0.073488656
0.057732638
0.039200624
0.016743934
0.13285598
0.13096568
0.12744135
0.12303683
0.11802798
0.1122813
0.10541857
0.096971611
0.08647228
0.073499129
0.057740803
0.039204423
0.016743782
0.13277957
0.1308925
0.12737654
0.12298549
0.11799315
0.11226302
0.10541427
0.096977179
0.086482984
0.073510473
0.057749269
0.039208263
0.016743663
0.13271122
0.13082729
0.12731938
0.12294118
0.11796442
0.11224969
0.10541371
0.096985294
0.086495206
0.073522543
0.057757963
0.03921212
0.016743574
0.13265058
0.13076968
0.12726949
0.12290349
0.11794138
0.11224093
0.10541653
0.096995672
0.086508734
0.073535205
0.057766813
0.039215972
0.016743512
0.13259728
0.1307193
0.12722648
0.12287202
0.11792363
0.11223636
0.1054224
0.097008042
0.08652337
0.07354833
0.057775757
0.039219796
0.016743475
0.13255096
0.13067578
0.12718996
0.12284639
0.11791079
0.11223562
0.10543101
0.097022147
0.086538926
0.073561802
0.057784733
0.039223574
0.016743462
0.13251122
0.13063872
0.12715954
0.12282619
0.11790247
0.11223835
0.10544204
0.097037744
0.086555226
0.073575509
0.057793688
0.039227289
0.01674347
0.13247769
0.13060774
0.12713483
0.12281104
0.1178983
0.11224422
0.10545521
0.097054601
0.086572108
0.073589352
0.057802573
0.039230925
0.016743496
0.13244999
0.13058245
0.12711544
0.12280056
0.11789791
0.11225289
0.10547024
0.097072506
0.086589419
0.073603238
0.057811342
0.039234468
0.01674354
0.13242774
0.13056248
0.127101
0.12279437
0.11790096
0.11226406
0.10548687
0.097091259
0.086607023
0.073617085
0.057819957
0.039237906
0.016743599
0.13241057
0.13054746
0.12709113
0.12279211
0.11790711
0.11227744
0.10550487
0.097110677
0.086624794
0.07363082
0.057828386
0.039241232
0.016743672
0.13239811
0.13053701
0.12708546
0.12279344
0.11791605
0.11229274
0.105524
0.097130591
0.086642619
0.073644379
0.0578366
0.039244437
0.016743756
0.13239
0.13053078
0.12708365
0.12279802
0.11792746
0.11230971
0.10554406
0.097150846
0.086660396
0.073657705
0.057844576
0.039247517
0.016743851
0.1323859
0.13052842
0.12708536
0.12280553
0.11794107
0.11232809
0.10556484
0.097171299
0.086678032
0.073670746
0.057852288
0.039250451
0.016743955
0.13238545
0.1305296
0.12709025
0.12281566
0.11795658
0.11234766
0.10558618
0.097191817
0.086695442
0.073683454
0.057859715
0.039253221
0.016744066
0.13238834
0.13053396
0.12709801
0.12282811
0.11797374
0.11236819
0.10560788
0.097212277
0.086712545
0.073695782
0.05786682
0.039255841
0.016744183
0.13239422
0.13054121
0.12710832
0.12284259
0.11799229
0.11238947
0.1056298
0.097232564
0.086729267
0.073707691
0.05787359
0.039258313
0.016744304
0.13240279
0.13055102
0.12712088
0.12285882
0.11801199
0.11241131
0.10565178
0.097252571
0.086745539
0.073719125
0.057880029
0.039260638
0.016744428
0.13241376
0.13056311
0.12713541
0.12287655
0.11803262
0.11243352
0.10567368
0.097272202
0.086761301
0.073730065
0.057886129
0.039262815
0.016744555
0.13242682
0.13057719
0.12715165
0.12289553
0.11805396
0.11245594
0.10569537
0.097291368
0.086776482
0.073740506
0.057891887
0.039264846
0.016744684
0.13244173
0.13059299
0.12716934
0.12291554
0.11807584
0.11247842
0.10571676
0.097309989
0.086791064
0.07375043
0.057897298
0.039266734
0.016744812
0.13245822
0.13061027
0.12718825
0.12293637
0.11809807
0.11250081
0.10573773
0.097328005
0.086805027
0.073759831
0.057902367
0.03926848
0.016744941
0.13247606
0.1306288
0.12720816
0.12295782
0.1181205
0.11252301
0.1057582
0.097345389
0.086818354
0.073768707
0.057907098
0.039270091
0.016745068
0.13249503
0.13064837
0.12722888
0.12297974
0.11814299
0.11254489
0.10577811
0.097362111
0.086831036
0.073777063
0.057911501
0.039271571
0.016745195
0.13251493
0.13066878
0.12725022
0.12300195
0.1181654
0.11256638
0.10579743
0.097378147
0.086843071
0.073784909
0.057915588
0.039272928
0.016745319
0.13253556
0.13068983
0.12727199
0.12302429
0.11818761
0.1125874
0.1058161
0.097393479
0.086854457
0.073792253
0.05791937
0.039274169
0.016745441
0.13255673
0.13071134
0.12729404
0.12304662
0.11820952
0.11260789
0.10583408
0.097408091
0.086865198
0.073799108
0.057922859
0.039275301
0.01674556
0.13257825
0.13073313
0.12731619
0.12306882
0.11823104
0.11262776
0.10585134
0.097421966
0.086875292
0.073805481
0.057926066
0.039276331
0.016745677
0.13259996
0.13075504
0.12733829
0.12309075
0.11825207
0.11264696
0.10586783
0.097435086
0.086884737
0.073811378
0.057928997
0.039277261
0.016745791
0.13262168
0.1307769
0.12736022
0.12311231
0.11827252
0.11266543
0.10588352
0.097447433
0.086893528
0.073816801
0.057931656
0.039278095
0.016745901
0.13264329
0.13079859
0.12738185
0.12313338
0.1182923
0.1126831
0.10589836
0.097458991
0.08690166
0.073821753
0.057934045
0.039278831
0.016746008
0.13266465
0.13081998
0.12740306
0.12315388
0.11831135
0.11269993
0.10591235
0.097469749
0.086909133
0.073826235
0.057936167
0.03927947
0.016746109
0.13268566
0.13084098
0.12742377
0.12317374
0.11832961
0.1127159
0.10592546
0.097479709
0.086915955
0.073830256
0.057938027
0.039280011
0.016746206
0.13270625
0.1308615
0.12744391
0.1231929
0.11834707
0.11273099
0.1059377
0.097488887
0.086922144
0.073833833
0.057939634
0.039280458
0.016746297
0.13272636
0.13088151
0.12746344
0.12321134
0.11836372
0.11274521
0.1059491
0.097497312
0.086927729
0.073836989
0.057941005
0.039280815
0.016746383
0.13274595
0.13090095
0.12748234
0.12322905
0.11837955
0.1127586
0.1059597
0.097505028
0.086932754
0.073839759
0.057942159
0.03928109
0.016746463
0.13276499
0.13091982
0.12750059
0.12324604
0.1183946
0.11277118
0.10596953
0.097512086
0.086937265
0.073842181
0.057943123
0.039281296
0.016746538
0.13278345
0.13093807
0.12751818
0.1232623
0.11840888
0.112783
0.10597865
0.097518541
0.086941315
0.073844296
0.057943925
0.039281447
0.016746608
0.13280129
0.1309557
0.1275351
0.12327784
0.11842241
0.11279408
0.10598711
0.097524441
0.08694495
0.073846144
0.05794459
0.039281555
0.016746674
0.13281848
0.13097265
0.1275513
0.12329264
0.11843519
0.11280446
0.10599493
0.097529821
0.086948203
0.073847752
0.057945139
0.039281633
0.016746736
0.13283496
0.13098887
0.12756676
0.12330667
0.11844722
0.11281411
0.10600213
0.097534698
0.086951096
0.073849139
0.057945586
0.039281688
0.016746796
0.13285064
0.1310043
0.12758142
0.1233199
0.11845845
0.11282304
0.10600869
0.09753907
0.086953627
0.073850306
0.057945931
0.03928172
0.016746852
0.13286547
0.13101888
0.1275952
0.12333226
0.11846885
0.1128312
0.1060146
0.097542922
0.086955787
0.073851245
0.057946169
0.039281726
0.016746906
0.13287939
0.13103253
0.12760807
0.12334371
0.11847839
0.11283858
0.10601983
0.097546231
0.086957554
0.07385194
0.057946286
0.039281698
0.016746955
0.13289235
0.13104523
0.12761998
0.12335422
0.11848703
0.11284513
0.10602435
0.097548979
0.086958914
0.073852374
0.05794627
0.039281624
0.016747
0.13290435
0.13105696
0.12763092
0.12336379
0.11849477
0.11285087
0.10602818
0.097551165
0.08695986
0.073852542
0.057946113
0.039281498
0.01674704
0.13291542
0.13106775
0.12764093
0.12337243
0.11850164
0.11285583
0.10603133
0.09755281
0.086960407
0.073852449
0.057945812
0.039281312
0.016747074
0.13292562
0.13107767
0.12765006
0.12338023
0.11850772
0.11286007
0.10603387
0.097553967
0.086960596
0.073852122
0.057945383
0.039281072
0.016747102
0.13293504
0.1310868
0.1276584
0.12338727
0.11851309
0.11286369
0.10603589
0.097554712
0.086960488
0.073851603
0.057944848
0.039280784
0.016747125
0.1329438
0.13109525
0.12766607
0.12339366
0.11851787
0.1128668
0.10603749
0.097555142
0.086960163
0.073850955
0.057944247
0.039280468
0.016747142
0.13295198
0.13110312
0.12767318
0.12339952
0.11852218
0.11286951
0.10603879
0.097555358
0.086959707
0.073850239
0.057943622
0.039280145
0.016747156
0.13295966
0.13111049
0.12767979
0.12340493
0.11852611
0.11287192
0.10603987
0.097555449
0.086959196
0.073849516
0.057943012
0.039279837
0.016747168
0.13296686
0.1311174
0.12768597
0.12340995
0.11852972
0.1128741
0.10604081
0.097555476
0.086958684
0.07384883
0.057942449
0.039279563
0.016747179
0.13297357
0.13112383
0.12769171
0.12341459
0.11853301
0.11287606
0.10604163
0.097555461
0.086958192
0.073848197
0.057941945
0.039279331
0.016747191
0.13297974
0.13112974
0.12769696
0.1234188
0.11853597
0.11287777
0.1060423
0.097555388
0.086957706
0.07384761
0.057941498
0.039279145
0.016747204
0.13298527
0.13113504
0.12770164
0.12342251
0.11853852
0.11287918
0.10604277
0.097555201
0.086957181
0.073847032
0.057941083
0.039278991
0.016747217
0.13299007
0.13113964
0.12770568
0.12342564
0.11854057
0.11288019
0.10604294
0.097554823
0.086956551
0.073846414
0.057940669
0.039278853
0.01674723
0.13299408
0.13114346
0.12770897
0.1234281
0.11854204
0.11288073
0.10604274
0.097554175
0.086955742
0.073845694
0.057940209
0.039278705
0.016747241
0.13299725
0.13114646
0.12771149
0.12342984
0.11854288
0.11288072
0.10604211
0.097553193
0.086954696
0.073844823
0.057939666
0.039278522
0.01674725
0.13299962
0.13114867
0.12771324
0.12343087
0.11854308
0.11288017
0.10604102
0.097551852
0.086953384
0.073843772
0.057939017
0.039278286
0.016747253
0.13300129
0.13115017
0.1277143
0.12343126
0.1185427
0.11287912
0.10603952
0.097550177
0.086951818
0.073842543
0.057938255
0.039277989
0.016747251
0.13300241
0.13115111
0.12771482
0.12343114
0.11854187
0.11287768
0.10603769
0.097548245
0.086950057
0.073841176
0.057937404
0.039277638
0.016747244
0.13300316
0.13115168
0.12771496
0.12343068
0.11854075
0.11287601
0.10603569
0.097546175
0.086948196
0.073839739
0.057936502
0.039277249
0.016747231
0.13300375
0.13115207
0.12771494
0.12343008
0.11853954
0.11287428
0.10603366
0.097544112
0.086946355
0.073838321
0.057935608
0.039276853
0.016747216
0.13300434
0.13115246
0.12771493
0.12342952
0.11853839
0.11287266
0.10603177
0.0975422
0.086944654
0.073837013
0.057934782
0.039276479
0.016747199
0.13300505
0.13115296
0.12771504
0.12342912
0.11853745
0.11287128
0.10603015
0.097540555
0.086943195
0.073835898
0.057934083
0.039276166
0.016747183
0.1330059
0.13115362
0.12771535
0.12342894
0.11853678
0.11287022
0.10602886
0.097539243
0.08694204
0.073835028
0.057933556
0.039275945
0.016747171
0.13300683
0.13115439
0.12771579
0.12342895
0.11853635
0.11286944
0.10602789
0.097538262
0.086941192
0.073834413
0.057933214
0.039275832
0.016747164
0.13300771
0.13115514
0.12771626
0.12342905
0.11853607
0.11286887
0.10602717
0.09753754
0.086940594
0.073834016
0.057933037
0.039275825
0.016747163
0.13300834
0.13115569
0.12771659
0.12342906
0.11853577
0.11286834
0.10602654
0.097536943
0.086940129
0.073833738
0.057932952
0.039275872
0.016747167
0.13300851
0.13115582
0.12771655
0.12342878
0.11853525
0.11286766
0.10602583
0.097536304