/*--------------------------------*- C++ -*----------------------------------*\
| =========                 |                                                 |
| \\      /  F ield         | OpenFOAM: The Open Source CFD Toolbox           |
|  \\    /   O peration     | Version:  2506                                  |
|   \\  /    A nd           | Website:  www.openfoam.com                      |
|    \\/     M anipulation  |                                                 |
\*---------------------------------------------------------------------------*/
FoamFile
{
    version     2.0;
    format      ascii;
    arch        "LSB;label=32;scalar=64";
    class       volScalarField;
    location    "5000/water";
    object      epsilon;
}
// * * * * * * * * * * * * * * * * * * * * * * * * * * * * * * * * * * * * * //

dimensions      [0 2 -3 0 0 0 0];

internalField   nonuniform List<scalar> 
2600
(
8.8079773e-05
8.8079245e-05
8.8079271e-05
8.807949e-05
8.8079744e-05
8.8080245e-05
8.8082926e-05
8.8104349e-05
8.8272771e-05
8.9512908e-05
9.8428186e-05
0.00017145296
0.0010138716
6.7789348e-05
6.7791881e-05
6.7793339e-05
6.7794963e-05
6.7796901e-05
6.7799886e-05
6.7810178e-05
6.7875511e-05
6.8312468e-05
7.1039872e-05
8.7857083e-05
0.00021159534
0.0014669324
5.3500886e-05
5.3503148e-05
5.3504846e-05
5.3506859e-05
5.3509287e-05
5.3513643e-05
5.3532992e-05
5.3656306e-05
5.4399641e-05
5.8506995e-05
8.1500797e-05
0.00023956052
0.0017068244
4.3127504e-05
4.3128883e-05
4.3130503e-05
4.3132598e-05
4.3135149e-05
4.3140834e-05
4.3171684e-05
4.3362646e-05
4.4413342e-05
4.9710824e-05
7.7552644e-05
0.00025818579
0.0017816909
3.539909e-05
3.5400132e-05
3.5401605e-05
3.5403513e-05
3.5405834e-05
3.5412916e-05
3.5457613e-05
3.5722605e-05
3.7073304e-05
4.3450503e-05
7.5629285e-05
0.00027290618
0.0017622817
2.9510599e-05
2.9511446e-05
2.95127e-05
2.9514227e-05
2.9516143e-05
2.9525119e-05
2.9586798e-05
2.9933924e-05
3.159515e-05
3.9095388e-05
7.5939385e-05
0.00028837858
0.0017002497
2.4935213e-05
2.4935877e-05
2.4936847e-05
2.4937875e-05
2.4939416e-05
2.4951342e-05
2.503458e-05
2.5477125e-05
2.7489448e-05
3.6318413e-05
7.8818158e-05
0.0003073199
0.0016256765
2.1318423e-05
2.1318913e-05
2.1319549e-05
2.132003e-05
2.1321464e-05
2.1338095e-05
2.144948e-05
2.2008273e-05
2.4447975e-05
3.4968795e-05
8.4593389e-05
0.00033066897
0.0015541994
1.8415642e-05
1.8415958e-05
1.8416233e-05
1.8416208e-05
1.8418091e-05
1.8442025e-05
1.8590687e-05
1.9295945e-05
2.2279378e-05
3.5010665e-05
9.3512814e-05
0.00035786641
0.0014930959
1.6054297e-05
1.6054439e-05
1.6054351e-05
1.6053968e-05
1.6057197e-05
1.6092028e-05
1.6290179e-05
1.7183376e-05
2.0872546e-05
3.6486908e-05
0.00010564207
0.00038720676
0.0014449141
1.411016e-05
1.4110129e-05
1.4109712e-05
1.4109249e-05
1.4115119e-05
1.4165612e-05
1.4429188e-05
1.5565379e-05
2.0175367e-05
3.9486471e-05
0.00012074249
0.00041640752
0.0014094648
1.249217e-05
1.2491978e-05
1.249131e-05
1.24912e-05
1.2501471e-05
1.2573786e-05
1.2923263e-05
1.4374121e-05
2.0181311e-05
4.4103574e-05
0.00013819401
0.00044331751
0.0013850187
1.1132483e-05
1.1132152e-05
1.1131368e-05
1.1132227e-05
1.1149209e-05
1.1251189e-05
1.1712642e-05
1.3570321e-05
2.0918928e-05
5.0386672e-05
0.00015703479
0.00046647967
0.0013691707
9.9797899e-06
9.9793621e-06
9.9786681e-06
9.9813266e-06
1.0007987e-05
1.0149541e-05
1.0756002e-05
1.3137755e-05
2.2440689e-05
5.8285037e-05
0.00017613324
0.00048532286
0.0013594869
8.994766e-06
8.994305e-06
8.9939894e-06
8.9995396e-06
9.0396464e-06
9.2332357e-06
1.0026406e-05
1.3079617e-05
2.4808572e-05
6.7609618e-05
0.00019442665
0.00050000486
0.0013539038
8.1468971e-06
8.1464947e-06
8.1469469e-06
8.1567947e-06
8.2150975e-06
8.4763588e-06
9.5087285e-06
1.3415553e-05
2.807526e-05
7.8026841e-05
0.0002111215
0.00051110137
0.0013508788
7.4122408e-06
7.412023e-06
7.4137548e-06
7.4296903e-06
7.5121568e-06
7.8606834e-06
9.1980663e-06
1.4178291e-05
3.2262331e-05
8.9094588e-05
0.00022578146
0.00051932558
0.0013493668
6.7718206e-06
6.7719549e-06
6.7756276e-06
6.7999151e-06
6.9140283e-06
7.3743439e-06
9.0987625e-06
1.5408888e-05
3.7339829e-05
0.00010033156
0.00023829849
0.00052535583
0.0013487149
6.2104575e-06
6.2111621e-06
6.2176208e-06
6.2531142e-06
6.4082476e-06
7.0110033e-06
9.2236697e-06
1.7149875e-05
4.3213606e-05
0.00011129559
0.0002487951
0.00052976262
0.0013485457
5.7159095e-06
5.7174657e-06
5.7277834e-06
5.7780724e-06
5.9859581e-06
6.7693776e-06
9.5932706e-06
1.9436233e-05
4.9726067e-05
0.00012164394
0.00025751549
0.00053299526
0.0013486594
5.2782322e-06
5.2809984e-06
5.2965329e-06
5.3661281e-06
5.6414368e-06
6.6530083e-06
1.0234238e-05
2.228513e-05
5.6672016e-05
0.00013115952
0.00026474159
0.0005353945
0.0013489619
4.889296e-06
4.893728e-06
4.9161934e-06
5.0107595e-06
5.3718124e-06
6.6701645e-06
1.1177042e-05
2.5686553e-05
6.3825678e-05
0.00013974422
0.00027074338
0.00053721257
0.0013494179
4.5424222e-06
4.549097e-06
4.5806559e-06
4.707302e-06
5.1769356e-06
6.8337316e-06
1.2452335e-05
2.9597477e-05
7.0970789e-05
0.00014739148
0.0002757568
0.0005386328
0.0013500205
4.2321037e-06
4.2417515e-06
4.2851315e-06
4.4527719e-06
5.0593678e-06
7.1609028e-06
1.4086152e-05
3.394183e-05
7.7925113e-05
0.00015415333
0.00027997823
0.00053978641
0.0013507744
3.9537926e-06
3.9673375e-06
4.0259782e-06
4.2457763e-06
5.0244498e-06
7.6724685e-06
1.6094424e-05
3.8616919e-05
8.4553951e-05
0.00016011197
0.00028356674
0.00054076615
0.0013516866
3.7037376e-06
3.7223496e-06
3.8005873e-06
4.0864974e-06
5.0804008e-06
8.3914976e-06
1.8477844e-05
4.3504911e-05
9.077206e-05
0.00016536002
0.00028664926
0.00054163685
0.0013527623
3.4788613e-06
3.504022e-06
3.6073203e-06
3.9767408e-06
5.2383695e-06
9.3412706e-06
2.1218352e-05
4.8486363e-05
9.6537094e-05
0.00016998886
0.00028932618
0.00054244334
0.0013540034
3.2766694e-06
3.3102566e-06
3.4454921e-06
3.9200366e-06
5.5123349e-06
1.0542478e-05
2.427837e-05
5.3452375e-05
0.00010183911
0.00017408281
0.00029167656
0.00054321637
0.0013554084
3.0951868e-06
3.1395803e-06
3.315394e-06
3.9217755e-06
5.9187331e-06
1.2009945e-05
2.7603266e-05
5.8312862e-05
0.0001066899
0.00017771679
0.00029376257
0.00054397675
0.0013569728
2.9329181e-06
2.991133e-06
3.2183574e-06
3.9893517e-06
6.47568e-06
1.3749403e-05
3.112658e-05
6.3000084e-05
0.00011111418
0.0001809559
0.00029563313
0.00054473837
0.0013586903
2.7888292e-06
2.8646819e-06
3.1568532e-06
4.132263e-06
7.2016967e-06
1.5755029e-05
3.4776808e-05
6.7468124e-05
0.00011514328
0.00018385585
0.00029732665
0.00054550992
0.0013605531
2.6623516e-06
2.7606641e-06
3.1346228e-06
4.362102e-06
8.1139275e-06
1.8008404e-05
3.8484156e-05
7.1689805e-05
0.00011881108
0.00018646428
0.00029887505
0.00054629402
0.0013625491
2.5534088e-06
2.680258e-06
3.1568304e-06
4.6923497e-06
9.22598e-06
2.0479254e-05
4.21859e-05
7.5652556e-05
0.00012215122
0.00018882083
0.00030030032
0.00054708344
0.001364665
2.4624667e-06
2.6254827e-06
3.2302147e-06
5.1378784e-06
1.0545685e-05
2.3127918e-05
4.5829653e-05
7.935444e-05
0.00012519597
0.00019095973
0.00030162122
0.00054787013
0.0013668874
2.3906118e-06
2.5993266e-06
3.3632046e-06
5.7140891e-06
1.2073206e-05
2.5908985e-05
4.9374528e-05
8.2800768e-05
0.00012797522
0.0001929092
0.00030285018
0.00054865288
0.0013692048
2.3396576e-06
2.6059009e-06
3.5659451e-06
6.4356566e-06
1.3799941e-05
2.8775319e-05
5.2790669e-05
8.6001444e-05
0.00013051585
0.0001946916
0.00030399376
0.00054944273
0.0013716092
2.3122834e-06
2.6506068e-06
3.8501618e-06
7.3149532e-06
1.5708513e-05
3.1681693e-05
5.6057927e-05
8.8969442e-05
0.00013284315
0.00019632773
0.00030505437
0.00055025018
0.0013740956
2.312204e-06
2.7402971e-06
4.2287856e-06
8.3603381e-06
1.7773921e-05
3.4587408e-05
5.9163895e-05
9.1718485e-05
0.000134977
0.0001978295
0.00030604752
0.00055107622
0.0013766577
2.3443664e-06
2.8833943e-06
4.715266e-06
9.5746046e-06
1.9965609e-05
3.7457895e-05
6.2102575e-05
9.4263947e-05
0.00013693775
0.00019920349
0.00030698675
0.00055192215
0.0013792894
2.4151613e-06
3.0899099e-06
5.3225444e-06
1.0953905e-05
2.2249993e-05
4.026506e-05
6.4872079e-05
9.6618924e-05
0.00013873802
0.00020046565
0.00030788006
0.00055278756
0.0013819844
2.5326205e-06
3.3712891e-06
6.0617309e-06
1.2487421e-05
2.4593018e-05
4.2987257e-05
6.7474462e-05
9.8797812e-05
0.00014038632
0.00020163083
0.00030873382
0.00055367121
0.0013847362
2.7065545e-06
3.739997e-06
6.9406289e-06
1.4157864e-05
2.6962172e-05
4.5608169e-05
6.9912765e-05
0.00010081055
0.00014189658
0.00020271014
0.00030955281
0.00055457138
0.0013875385
2.9485501e-06
4.2087761e-06
7.9623502e-06
1.5942734e-05
2.9328091e-05
4.8116704e-05
7.2192973e-05
0.0001026631
0.00014328329
0.00020371266
0.00031034058
0.00055548595
0.0013903847
3.2717205e-06
4.7895534e-06
9.124282e-06
1.7815986e-05
3.1665001e-05
5.0504533e-05
7.431848e-05
0.00010436656
0.00014455809
0.0002046458
0.0003110997
0.0005564126
0.0013932687
3.6900855e-06
5.4920727e-06
1.0417683e-05
1.9750012e-05
3.3951699e-05
5.2768183e-05
7.6289668e-05
0.00010593299
0.00014573089
0.00020551555
0.00031183197
0.00055734877
0.0013961839
4.2174845e-06
6.3224277e-06
1.1827951e-05
2.171714e-05
3.6170246e-05
5.4901159e-05
7.8113757e-05
0.00010737249
0.00014680993
0.00020632674
0.00031253851
0.00055829181
0.0013991243
4.8660257e-06
7.2817743e-06
1.3335593e-05
2.3691123e-05
3.8306687e-05
5.6898167e-05
7.9798304e-05
0.00010869389
0.00014780214
0.00020708321
0.00031321994
0.0005592389
0.0014020836
5.644249e-06
8.3655562e-06
1.4917865e-05
2.564878e-05
4.0344257e-05
5.8760206e-05
8.1350099e-05
0.00010990478
0.00014871321
0.00020778792
0.00031387635
0.00056018712
0.0014050556
6.5553589e-06
9.5634595e-06
1.6550685e-05
2.756532e-05
4.2272541e-05
6.0488807e-05
8.2775227e-05
0.00011101156
0.00014954783
0.00020844308
0.00031450744
0.0005611334
0.0014080338
7.5961531e-06
1.0860441e-05
1.8207368e-05
2.9419101e-05
4.4084529e-05
6.2085813e-05
8.4079033e-05
0.0001120196
0.00015030968
0.00020905022
0.00031511248
0.00056207453
0.0014110119
8.7563149e-06
1.223555e-05
1.9861231e-05
3.1193216e-05
4.5774964e-05
6.355318e-05
8.5266111e-05
0.00011293328
0.00015100165
0.00020961023
0.00031569038
0.00056300711
0.0014139831
1.0017521e-05
1.3664334e-05
2.1488448e-05
3.2873858e-05
4.7340053e-05
6.4892867e-05
8.6340346e-05
0.00011375612
0.0001516258
0.00021012347
0.00031623966
0.00056392754
0.0014169405
1.1355901e-05
1.5121211e-05
2.3068171e-05
3.4450178e-05
4.8777289e-05
6.6106811e-05
8.7304984e-05
0.00011449085
0.00015218355
0.00021058975
0.00031675852
0.00056483203
0.0014198766
1.2744265e-05
1.6581081e-05
2.4582902e-05
3.5914123e-05
5.0085354e-05
6.719697e-05
8.8162738e-05
0.00011513953
0.00015267569
0.00021100843
0.00031724482
0.00056571653
0.0014227834
1.4154481e-05
1.8020637e-05
2.6018604e-05
3.7260265e-05
5.1264092e-05
6.8165413e-05
8.8915932e-05
0.0001157037
0.00015310253
0.00021137848
0.00031769616
0.00056657675
0.0014256524
1.555958e-05
1.9419302e-05
2.7364606e-05
3.8485598e-05
5.231449e-05
6.9014449e-05
8.9566665e-05
0.0001161845
0.00015346401
0.00021169859
0.00031810989
0.00056740823
0.0014284744
1.6935339e-05
2.0759786e-05
2.8613378e-05
3.9589303e-05
5.3238669e-05
6.9746757e-05
9.0116988e-05
0.00011658289
0.00015375983
0.00021196724
0.00031848324
0.00056820634
0.0014312396
1.8261269e-05
2.2028325e-05
2.9760206e-05
4.0572478e-05
5.4039842e-05
7.0365496e-05
9.0569078e-05
0.00011689975
0.00015398961
0.00021218284
0.00031881338
0.0005689664
0.0014339377
1.9521048e-05
2.3214636e-05
3.0802835e-05
4.1437841e-05
5.4722228e-05
7.0874392e-05
9.0925392e-05
0.00011713613
0.00015415307
0.0002123439
0.00031909759
0.0005696838
0.0014365579
2.0702516e-05
2.4311688e-05
3.1741086e-05
4.2189436e-05
5.5290937e-05
7.1277773e-05
9.1188791e-05
0.00011729337
0.00015425016
0.00021244916
0.00031933341
0.00057035412
0.0014390893
2.179737e-05
2.5315353e-05
3.257649e-05
4.2832332e-05
5.5751828e-05
7.1580558e-05
9.1362626e-05
0.00011737319
0.0001542812
0.00021249774
0.00031951874
0.00057097333
0.0014415208
2.2800694e-05
2.6223984e-05
3.3311941e-05
4.3372362e-05
5.6111337e-05
7.1788219e-05
9.1450777e-05
0.00011737787
0.00015424704
0.00021248927
0.00031965201
0.0005715379
0.0014438419
2.3710404e-05
2.7037978e-05
3.3951388e-05
4.3815874e-05
5.6376316e-05
7.1906691e-05
9.1457656e-05
0.00011731022
0.00015414911
0.00021242401
0.00031973234
0.00057204499
0.0014460427
2.4526702e-05
2.7759361e-05
3.4499555e-05
4.4169529e-05
5.6553869e-05
7.1942283e-05
9.1388169e-05
0.00011717368
0.00015398951
0.00021230291
0.00031975954
0.00057249257
0.001448114
2.5251562e-05
2.8391404e-05
3.4961707e-05
4.444013e-05
5.6651213e-05
7.1901559e-05
9.1247655e-05
0.00011697222
0.00015377099
0.00021212768
0.00031973427
0.00057287945
0.0014500481
2.5888278e-05
2.8938287e-05
3.5343456e-05
4.4634486e-05
5.6675545e-05
7.1791234e-05
9.1041802e-05
0.00011671034
0.00015349694
0.00021190076
0.00031965799
0.00057320541
0.0014518386
2.6441083e-05
2.9404817e-05
3.5650592e-05
4.4759303e-05
5.6633948e-05
7.1618067e-05
9.0776554e-05
0.00011639299
0.00015317136
0.00021162526
0.00031953294
0.00057347115
0.0014534809
2.6914835e-05
2.9796197e-05
3.5888958e-05
4.4821107e-05
5.6533305e-05
7.1388766e-05
9.0458013e-05
0.00011602548
0.00015279874
0.00021130497
0.00031936212
0.00057367824
0.0014549719
2.7314772e-05
3.0117837e-05
3.6064346e-05
4.4826184e-05
5.6380237e-05
7.1109905e-05
9.0092342e-05
0.00011561335
0.00015238399
0.00021094419
0.00031914913
0.00057382908
0.0014563106
2.7646312e-05
3.0375212e-05
3.6182417e-05
4.4780538e-05
5.618106e-05
7.0787857e-05
8.9685679e-05
0.00011516232
0.00015193234
0.00021054764
0.00031889812
0.00057392677
0.0014574976
2.7914913e-05
3.0573747e-05
3.6248645e-05
4.4689865e-05
5.5941755e-05
7.0428743e-05
8.9244049e-05
0.00011467816
0.0001514492
0.00021012034
0.00031861363
0.00057397498
0.0014585351
2.8125957e-05
3.0718741e-05
3.6268276e-05
4.4559538e-05
5.5667948e-05
7.0038382e-05
8.87733e-05
0.00011416656
0.00015094006
0.00020966751
0.00031830045
0.00057397783
0.0014594269
2.8284676e-05
3.0815304e-05
3.6246295e-05
4.4394597e-05
5.5364901e-05
6.9622268e-05
8.8279044e-05
0.00011363314
0.00015041038
0.00020919438
0.0003179635
0.00057393972
0.0014601782
2.8396095e-05
3.0868315e-05
3.6187416e-05
4.4199749e-05
5.5037507e-05
6.9185543e-05
8.7766605e-05
0.00011308328
0.00014986552
0.00020870617
0.00031760771
0.00057386523
0.0014607952
2.8464994e-05
3.0882401e-05
3.6096064e-05
4.3979371e-05
5.4690296e-05
6.8732989e-05
8.7240988e-05
0.0001125221
0.00014931061
0.00020820791
0.0003172379
0.00057375899
0.0014612853
2.8495891e-05
3.0861919e-05
3.5976376e-05
4.3737517e-05
5.4327442e-05
6.826902e-05
8.6706848e-05
0.00011195444
0.00014875054
0.0002077044
0.00031685868
0.00057362554
0.0014616562
2.8493025e-05
3.0810946e-05
3.5832205e-05
4.3477926e-05
5.3952768e-05
6.7797682e-05
8.6168477e-05
0.00011138476
0.00014818984
0.00020720013
0.0003164744
0.0005734693
0.0014619165
2.8460354e-05
3.0733283e-05
3.566712e-05
4.3204034e-05
5.3569762e-05
6.7322658e-05
8.5629794e-05
0.00011081716
0.0001476327
0.00020669925
0.00031608906
0.00057329444
0.0014620749
2.8401558e-05
3.0632457e-05
3.5484414e-05
4.2918987e-05
5.318159e-05
6.6847277e-05
8.5094343e-05
0.00011025537
0.00014708291
0.00020620549
0.0003157063
0.00057310487
0.0014621402
2.8320043e-05
3.0511727e-05
3.5287118e-05
4.2625651e-05
5.279111e-05
6.6374528e-05
8.4565294e-05
0.00010970271
0.00014654386
0.00020572218
0.00031532935
0.00057290417
0.0014621215
2.8218952e-05
3.0374094e-05
3.5078009e-05
4.2326628e-05
5.2400889e-05
6.5907068e-05
8.4045459e-05
0.00010916212
0.00014601851
0.00020525222
0.00031496102
0.00057269561
0.0014620274
2.8101173e-05
3.0222311e-05
3.4859621e-05
4.2024272e-05
5.2013215e-05
6.5447244e-05
8.3537296e-05
0.00010863614
0.00014550943
0.0002047981
0.00031460374
0.00057248209
0.0014618665
2.7969351e-05
3.0058896e-05
3.4634256e-05
4.1720697e-05
5.1630117e-05
6.4997106e-05
8.3042931e-05
0.00010812695
0.00014501878
0.00020436188
0.00031425951
0.00057226618
0.0014616468
2.7825902e-05
2.9886144e-05
3.4404003e-05
4.1417796e-05
5.1253381e-05
6.4558427e-05
8.2564173e-05
0.0001076364
0.00014454835
0.00020394524
0.00031392997
0.00057205012
0.0014613763
2.7673026e-05
2.9706136e-05
3.4170743e-05
4.1117252e-05
5.0884562e-05
6.4132719e-05
8.2102534e-05
0.00010716597
0.00014409958
0.00020354949
0.00031361639
0.00057183578
0.0014610622
2.751272e-05
2.9520759e-05
3.3936163e-05
4.0820555e-05
5.0525007e-05
6.3721252e-05
8.165925e-05
0.00010671685
0.00014367355
0.00020317561
0.0003133198
0.00057162452
0.0014607111
2.7346786e-05
2.9331711e-05
3.3701775e-05
4.0529011e-05
5.0175861e-05
6.3325074e-05
8.12353e-05
0.00010628996
0.00014327104
0.00020282424
0.00031304072
0.00057141642
0.0014603286
2.7176852e-05
2.9140517e-05
3.3468919e-05
4.0243757e-05
4.9838092e-05
6.2945028e-05
8.0831432e-05
0.00010588593
0.00014289262
0.00020249589
0.00031277954
0.00057120928
0.0014599198
2.7004377e-05
2.894854e-05
3.3238778e-05
3.9965775e-05
4.9512497e-05
6.2581766e-05
8.0448178e-05
0.00010550517
0.0001425385
0.00020219043
0.00031253534
0.00057100468
0.0014594898
2.6830666e-05
2.8756993e-05
3.3012394e-05
3.96959e-05
4.9199722e-05
6.2235777e-05
8.0085896e-05
0.00010514794
0.00014220886
0.00020190801
0.00031230611
0.0005708057
0.0014590438
2.6656881e-05
2.856695e-05
3.279067e-05
3.9434836e-05
4.8900276e-05
6.1907398e-05
7.9744769e-05
0.00010481424
0.00014190343
0.00020164698
0.00031209275
0.0005706139
0.0014585869
2.6484052e-05
2.8379355e-05
3.257439e-05
3.9183166e-05
4.8614539e-05
6.1596823e-05
7.9424816e-05
0.00010450389
0.0001416217
0.00020140638
0.00031189574
0.00057043041
0.0014581236
2.6313085e-05
2.8195034e-05
3.2364221e-05
3.8941362e-05
4.8342784e-05
6.1304145e-05
7.912597e-05
0.00010421666
0.0001413622
0.0002011862
0.00031171519
0.00057025603
0.0014576578
2.6144775e-05
2.8014704e-05
3.216073e-05
3.87098e-05
4.8085185e-05
6.1029339e-05
7.8847984e-05
0.00010395152
0.00014112445
0.00020098612
0.00031155093
0.00057009122
0.001457193
2.5979815e-05
2.7838983e-05
3.1964388e-05
3.8488761e-05
4.7841821e-05
6.0772273e-05
7.8590331e-05
0.00010370764
0.00014090797
0.00020080563
0.00031140262
0.00056993624
0.0014567323
2.5818801e-05
2.7668398e-05
3.1775582e-05
3.8278454e-05
4.7612702e-05
6.0532701e-05
7.835215e-05
0.00010348449
0.00014071215
0.00020064412
0.00031126975
0.00056979118
0.0014562783
2.5662249e-05
2.7503396e-05
3.1594629e-05
3.8079031e-05
4.7397754e-05
6.0309953e-05
7.8132956e-05
0.00010328146
0.00014053627
0.00020050083
0.00031115172
0.00056965601
0.0014558334
2.5510597e-05
2.7344358e-05
3.1421797e-05
3.7890531e-05
4.719657e-05
6.0103638e-05
7.7932201e-05
0.00010309787
0.00014037955
0.00020037495
0.00031104785
0.00056953058
0.0014553995
2.5364226e-05
2.7191602e-05
3.1257211e-05
3.7712808e-05
4.7008895e-05
5.9913322e-05
7.7749286e-05
0.00010293298
0.00014024113
0.0002002656
0.00031095741
0.00056941468
0.0014549781
2.5223414e-05
2.704532e-05
3.1100913e-05
3.7545747e-05
4.6834436e-05
5.9738532e-05
7.7583564e-05
0.00010278597
0.0001401201
0.00020017186
0.00031087963
0.00056930804
0.0014545708
2.5088366e-05
2.6905645e-05
3.0952915e-05
3.7389201e-05
4.6672867e-05
5.957876e-05
7.7434352e-05
0.00010265602
0.00014001553
0.00020009278
0.00031081373
0.00056921035
0.0014541786
2.495923e-05
2.6772667e-05
3.0813189e-05
3.7242991e-05
4.6523834e-05
5.9433467e-05
7.7300938e-05
0.00010254227
0.00013992648
0.00020002743
0.00031075892
0.00056912125
0.0014538023
2.483611e-05
2.6646437e-05
3.0681674e-05
3.7106906e-05
4.6386953e-05
5.930209e-05
7.7182588e-05
0.00010244385
0.00013985198
0.00019997486
0.00031071441
0.00056904039
0.0014534426
2.4719071e-05
2.6526966e-05
3.0558276e-05
3.6980708e-05
4.6261817e-05
5.9184044e-05
7.707855e-05
0.00010235986
0.00013979107
0.00019993411
0.00031067942
0.00056896738
0.0014531
2.4608142e-05
2.6414234e-05
3.0442875e-05
3.6864134e-05
4.6147998e-05
5.9078728e-05
7.6988063e-05
0.00010228943
0.00013974281
0.00019990427
0.0003106532
0.00056890183
0.0014527749
2.4503321e-05
2.6308191e-05
3.0335322e-05
3.6756902e-05
4.6045052e-05
5.8985532e-05
7.6910362e-05
0.00010223167
0.00013970624
0.00019988444
0.00031063501
0.00056884335
0.0014524675
2.4404576e-05
2.620876e-05
3.0235446e-05
3.6658706e-05
4.595252e-05
5.8903834e-05
7.6844679e-05
0.0001021857
0.00013968046
0.00019987375
0.00031062413
0.00056879156
0.0014521777
2.4311849e-05
2.611584e-05
3.0143053e-05
3.6569228e-05
4.5869931e-05
5.8833011e-05
7.6790255e-05
0.00010215067
0.00013966457
0.00019987135
0.0003106199
0.00056874607
0.0014519056
2.422506e-05
2.6029307e-05
3.0057935e-05
3.6488133e-05
4.579681e-05
5.8772439e-05
7.6746334e-05
0.00010212573
0.0001396577
0.00019987644
0.00031062165
0.00056870649
0.001451651
2.4144109e-05
2.5949021e-05
2.9979863e-05
3.6415079e-05
4.5732673e-05
5.8721496e-05
7.6712178e-05
0.00010211007
0.00013965903
0.00019988825
0.00031062878
0.00056867246
0.0014514136
2.4068874e-05
2.5874822e-05
2.9908597e-05
3.634971e-05
4.5677036e-05
5.8679565e-05
7.6687058e-05
0.00010210289
0.00013966774
0.00019990604
0.0003106407
0.00056864361
0.0014511932
2.399922e-05
2.5806536e-05
2.9843887e-05
3.6291668e-05
4.5629415e-05
5.8646041e-05
7.6670267e-05
0.00010210342
0.00013968308
0.00019992912
0.00031065685
0.00056861959
0.0014509893
2.3934995e-05
2.5743976e-05
2.978547e-05
3.6240588e-05
4.5589327e-05
5.8620325e-05
7.6661117e-05
0.00010211093
0.00013970431
0.00019995683
0.00031067672
0.00056860006
0.0014508015
2.3876036e-05
2.5686944e-05
2.9733078e-05
3.6196103e-05
4.5556295e-05
5.8601833e-05
7.665894e-05
0.00010212471
0.00013973074
0.00019998856
0.00031069983
0.00056858468
0.0014506294
2.3822169e-05
2.5635233e-05
2.9686435e-05
3.6157847e-05
4.5529848e-05
5.8589997e-05
7.6663093e-05
0.00010214408
0.00013976172
0.00020002373
0.00031072571
0.00056857314
0.0014504723
2.3773211e-05
2.5588629e-05
2.9645263e-05
3.6125453e-05
4.5509523e-05
5.8584262e-05
7.667296e-05
0.00010216841
0.00013979663
0.0002000618
0.00031075394
0.00056856512
0.0014503299
2.3728969e-05
2.5546911e-05
2.9609281e-05
3.6098557e-05
4.5494865e-05
5.8584095e-05
7.6687947e-05
0.00010219708
0.00013983489
0.00020010227
0.00031078414
0.00056856034
0.0014502013
2.3689247e-05
2.5509853e-05
2.9578206e-05
3.6076802e-05
4.5485433e-05
5.8588977e-05
7.6707491e-05
0.00010222951
0.00013987596
0.00020014467
0.00031081593
0.00056855852
0.0014500862
2.3653842e-05
2.5477226e-05
2.9551756e-05
3.6059833e-05
4.5480797e-05
5.8598414e-05
7.6731053e-05
0.00010226518
0.00013991935
0.00020018858
0.00031084898
0.00056855937
0.0014499838
2.3622549e-05
2.5448801e-05
2.952965e-05
3.6047303e-05
4.5480539e-05
5.8611928e-05
7.6758124e-05
0.00010230356
0.00013996456
0.00020023359
0.00031088299
0.00056856265
0.0014498934
2.3595159e-05
2.5424345e-05
2.951161e-05
3.6038874e-05
4.5484257e-05
5.8629067e-05
7.6788224e-05
0.00010234419
0.00014001119
0.00020027934
0.00031091767
0.00056856811
0.0014498146
2.3571464e-05
2.5403629e-05
2.9497363e-05
3.6034214e-05
4.5491564e-05
5.8649396e-05
7.6820898e-05
0.00010238662
0.00014005882
0.00020032551
0.00031095276
0.00056857553
0.0014497466
2.3551254e-05
2.5386423e-05
2.9486638e-05
3.6033004e-05
4.5502087e-05
5.8672507e-05
7.6855721e-05
0.00010243044
0.00014010709
0.00020037179
0.00031098802
0.00056858468
0.0014496888
2.3534319e-05
2.5372499e-05
2.9479171e-05
3.6034933e-05
4.5515473e-05
5.8698011e-05
7.6892297e-05
0.00010247527
0.00014015567
0.00020041791
0.00031102325
0.00056859535
0.0014496405
2.3520454e-05
2.5361633e-05
2.9474706e-05
3.6039702e-05
4.553138e-05
5.8725542e-05
7.6930253e-05
0.00010252076
0.00014020425
0.00020046362
0.00031105825
0.00056860735
0.0014496013
2.3509454e-05
2.5353606e-05
2.9472992e-05
3.6047024e-05
4.5549488e-05
5.8754758e-05
7.6969248e-05
0.0001025666
0.00014025255
0.00020050871
0.00031109285
0.00056862048
0.0014495703
2.3501117e-05
2.5348201e-05
2.9473786e-05
3.6056622e-05
4.5569493e-05
5.8785338e-05
7.7008963e-05
0.00010261248
0.00014030033
0.00020055299
0.00031112689
0.00056863457
0.0014495471
2.3495247e-05
2.5345211e-05
2.9476855e-05
3.6068235e-05
4.5591105e-05
5.8816982e-05
7.7049107e-05
0.00010265815
0.00014034737
0.00020059627
0.00031116024
0.00056864945
0.0014495311
2.3491649e-05
2.5344429e-05
2.9481972e-05
3.6081612e-05
4.5614057e-05
5.8849413e-05
7.7089412e-05
0.00010270337
0.00014039348
0.00020063841
0.00031119277
0.00056866496
0.0014495216
2.3490138e-05
2.5345658e-05
2.9488921e-05
3.6096515e-05
4.5638094e-05
5.8882375e-05
7.7129635e-05
0.00010274793
0.00014043847
0.00020067928
0.00031122439
0.00056868097
0.0014495181
2.349053e-05
2.5348709e-05
2.9497496e-05
3.6112722e-05
4.5662981e-05
5.8915632e-05
7.7169557e-05
0.00010279162
0.0001404822
0.00020071877
0.00031125499
0.00056869734
0.00144952
2.3492651e-05
2.5353397e-05
2.9507499e-05
3.6130019e-05
4.5688498e-05
5.8948969e-05
7.720898e-05
0.0001028343
0.00014052455
0.00020075679
0.00031128452
0.00056871396
0.0014495269
2.3496329e-05
2.5359546e-05
2.9518745e-05
3.6148211e-05
4.5714445e-05
5.898219e-05
7.7247727e-05
0.00010287581
0.0001405654
0.00020079327
0.00031131291
0.00056873071
0.0014495383
2.3501403e-05
2.5366989e-05
2.9531054e-05
3.6167112e-05
4.5740633e-05
5.9015117e-05
7.7285642e-05
0.00010291602
0.00014060466
0.00020082814
0.00031134012
0.00056874751
0.0014495536
2.3507718e-05
2.5375566e-05
2.9544262e-05
3.618655e-05
4.5766894e-05
5.9047592e-05
7.7322588e-05
0.00010295484
0.00014064227
0.00020086137
0.00031136609
0.00056876425
0.0014495724
2.3515123e-05
2.5385124e-05
2.955821e-05
3.6206366e-05
4.579307e-05
5.9079471e-05
7.7358445e-05
0.00010299217
0.00014067817
0.00020089292
0.00031139081
0.00056878086
0.0014495944
2.3523478e-05
2.5395521e-05
2.9572752e-05
3.6226412e-05
4.5819022e-05
5.911063e-05
7.7393111e-05
0.00010302794
0.00014071231
0.00020092277
0.00031141425
0.00056879724
0.0014496191
2.3532649e-05
2.540662e-05
2.9587752e-05
3.6246554e-05
4.5844622e-05
5.9140958e-05
7.7426501e-05
0.00010306209
0.00014074466
0.00020095092
0.00031143641
0.0005688133
0.0014496461
2.354251e-05
2.5418295e-05
2.9603083e-05
3.6266668e-05
4.5869757e-05
5.9170358e-05
7.7458542e-05
0.00010309458
0.00014077521
0.00020097735
0.00031145726
0.00056882888
0.001449675
2.3552943e-05
2.5430427e-05
2.9618626e-05
3.6286643e-05
4.5894328e-05
5.9198751e-05
7.7489179e-05
0.00010312538
0.00014080395
0.00020100209
0.0003114768
0.0005688437
0.0014497053
2.3563835e-05
2.5442905e-05
2.9634275e-05
3.6306378e-05
4.5918247e-05
5.9226067e-05
7.7518367e-05
0.00010315447
0.00014083089
0.00020102514
0.00031149499
0.00056885771
0.0014497367
2.3575083e-05
2.5455628e-05
2.9649931e-05
3.6325784e-05
4.5941438e-05
5.9252252e-05
7.7546077e-05
0.00010318185
0.00014085606
0.00020104654
0.0003115117
0.00056887106
0.001449769
2.3586592e-05
2.5468501e-05
2.9665505e-05
3.6344779e-05
4.5963836e-05
5.9277262e-05
7.7572289e-05
0.00010320752
0.00014087946
0.00020106627
0.00031152699
0.00056888381
0.0014498018
2.3598272e-05
2.5481437e-05
2.9680915e-05
3.6363295e-05
4.5985389e-05
5.9301066e-05
7.7596998e-05
0.00010323151
0.00014090114
0.00020108428
0.00031154097
0.00056889599
0.001449835
2.3610041e-05
2.5494357e-05
2.9696091e-05
3.638127e-05
4.6006052e-05
5.9323641e-05
7.7620205e-05
0.00010325383
0.00014092108
0.00020110065
0.00031155373
0.00056890764
0.0014498684
2.3621825e-05
2.5507189e-05
2.9710966e-05
3.6398653e-05
4.6025791e-05
5.9344974e-05
7.7641918e-05
0.00010327451
0.00014093928
0.00020111549
0.00031156532
0.00056891876
0.0014499018
2.3633555e-05
2.5519869e-05
2.9725485e-05
3.6415401e-05
4.6044582e-05
5.9365064e-05
7.7662161e-05
0.00010329352
0.00014095583
0.00020112885
0.00031157583
0.00056892938
0.001449935
2.3645169e-05
2.5532339e-05
2.9739598e-05
3.6431477e-05
4.6062407e-05
5.9383915e-05
7.7680919e-05
0.00010331092
0.0001409708
0.00020114082
0.0003115853
0.00056893949
0.0014499679
2.3656614e-05
2.5544548e-05
2.9753264e-05
3.6446854e-05
4.6079258e-05
5.9401519e-05
7.7698208e-05
0.00010332676
0.00014098425
0.00020115147
0.00031159378
0.00056894908
0.0014500004
2.3667839e-05
2.555645e-05
2.9766447e-05
3.6461514e-05
4.6095122e-05
5.9417874e-05
7.7714069e-05
0.0001033411
0.00014099626
0.00020116087
0.00031160132
0.00056895814
0.0014500323
2.3678802e-05
2.5568009e-05
2.977912e-05
3.6475433e-05
4.6109988e-05
5.9433001e-05
7.7728542e-05
0.00010335399
0.00014100689
0.00020116907
0.00031160796
0.00056896665
0.0014500636
2.3689467e-05
2.5579192e-05
2.9791254e-05
3.6488593e-05
4.6123858e-05
5.9446926e-05
7.7741676e-05
0.00010336551
0.00014101621
0.00020117615
0.00031161374
0.00056897459
0.001450094
2.3699799e-05
2.5589967e-05
2.9802827e-05
3.6500988e-05
4.6136746e-05
5.9459681e-05
7.7753521e-05
0.00010337571
0.0001410243
0.00020118217
0.00031161871
0.00056898195
0.0014501235
2.3709769e-05
2.5600308e-05
2.981382e-05
3.6512614e-05
4.6148667e-05
5.9471301e-05
7.7764131e-05
0.00010338467
0.00014103122
0.00020118719
0.0003116229
0.00056898875
0.0014501519
2.3719352e-05
2.5610194e-05
2.9824225e-05
3.6523476e-05
4.6159642e-05
5.9481828e-05
7.7773561e-05
0.00010339244
0.00014103705
0.00020119128
0.00031162638
0.00056899499
0.0014501791
2.3728527e-05
2.5619611e-05
2.9834034e-05
3.6533582e-05
4.6169699e-05
5.9491304e-05
7.7781872e-05
0.00010339911
0.00014104186
0.00020119452
0.00031162919
0.00056900071
0.0014502051
2.3737279e-05
2.5628545e-05
2.9843246e-05
3.6542945e-05
4.6178864e-05
5.9499775e-05
7.7789123e-05
0.00010340473
0.00014104573
0.00020119697
0.00031163141
0.00056900596
0.0014502298
2.3745596e-05
2.5636991e-05
2.9851864e-05
3.6551579e-05
4.6187171e-05
5.9507289e-05
7.7795375e-05
0.00010340938
0.00014104872
0.0002011987
0.00031163308
0.0005690108
0.0014502532
2.3753469e-05
2.5644945e-05
2.9859893e-05
3.6559504e-05
4.6194652e-05
5.9513893e-05
7.7800689e-05
0.00010341314
0.00014105092
0.00020119977
0.00031163426
0.00056901526
0.0014502755
2.3760895e-05
2.5652406e-05
2.9867342e-05
3.6566741e-05
4.6201342e-05
5.9519636e-05
7.7805123e-05
0.00010341605
0.00014105237
0.00020120026
0.00031163501
0.00056901938
0.0014502966
2.3767871e-05
2.5659377e-05
2.987422e-05
3.6573311e-05
4.6207276e-05
5.9524565e-05
7.7808735e-05
0.00010341819
0.00014105315
0.0002012002
0.00031163536
0.00056902317
0.0014503166
2.3774399e-05
2.5665862e-05
2.9880542e-05
3.6579239e-05
4.6212491e-05
5.9528729e-05
7.7811579e-05
0.00010341962
0.00014105332
0.00020119966