/*--------------------------------*- C++ -*----------------------------------*\
| =========                 |                                                 |
| \\      /  F ield         | OpenFOAM: The Open Source CFD Toolbox           |
|  \\    /   O peration     | Version:  2506                                  |
|   \\  /    A nd           | Website:  www.openfoam.com                      |
|    \\/     M anipulation  |                                                 |
\*---------------------------------------------------------------------------*/
FoamFile
{
    version     2.0;
    format      ascii;
    arch        "LSB;label=32;scalar=64";
    class       volScalarField;
    location    "5000/water";
    object      k;
}
// * * * * * * * * * * * * * * * * * * * * * * * * * * * * * * * * * * * * * //

dimensions      [0 2 -2 0 0 0 0];

internalField   nonuniform List<scalar> 
2600
(
0.0001992401
0.00019923925
0.00019923929
0.00019923963
0.00019923982
0.00019923914
0.00019923438
0.00019921375
0.00019914651
0.00019904325
0.00019990841
0.00021454267
0.00040955349
0.00017237279
0.00017237614
0.00017237826
0.00017238051
0.0001723821
0.00017237949
0.00017235884
0.00017227555
0.000172027
0.00017162102
0.00017329371
0.00020304806
0.00052391648
0.00015132731
0.00015133049
0.00015133306
0.00015133552
0.00015133516
0.00015132207
0.00015126283
0.00015106462
0.00015055477
0.00014985944
0.0001528957
0.00019760629
0.00057958156
0.00013448336
0.00013448533
0.00013448764
0.00013448905
0.00013448325
0.00013445009
0.00013432997
0.00013398205
0.00013321503
0.00013247936
0.00013787909
0.00019702317
0.00059640815
0.00012075551
0.00012075697
0.00012075853
0.00012075718
0.00012074152
0.0001206782
0.00012048052
0.00011997843
0.0001190486
0.00011870929
0.00012776334
0.00020116854
0.00059206885
0.0001093899
0.00010939088
0.000109391
0.00010938492
0.00010935483
0.00010925313
0.00010897207
0.00010834649
0.00010742643
0.0001080609
0.00012226457
0.00021023394
0.00057809221
9.984982e-05
9.9850093e-05
9.9847944e-05
9.9835056e-05
9.9786463e-05
9.9641865e-05
9.9284958e-05
9.859999e-05
9.7925044e-05
0.00010022517
0.00012123091
0.00022425603
0.00056106272
9.1744874e-05
9.174416e-05
9.1738826e-05
9.1717148e-05
9.1647174e-05
9.1460104e-05
9.1049018e-05
9.0398665e-05
9.0258419e-05
9.5030413e-05
0.00012461431
0.00024286356
0.00054449405
8.4785472e-05
8.4783454e-05
8.4774018e-05
8.4741918e-05
8.4649457e-05
8.4426122e-05
8.3996574e-05
8.3502376e-05
8.4241543e-05
9.2421343e-05
0.00013239492
0.00026511347
0.00053012765
7.8752977e-05
7.8749319e-05
7.8734951e-05
7.8691403e-05
7.8577619e-05
7.8330528e-05
7.7932172e-05
7.7743318e-05
7.9771153e-05
9.2438122e-05
0.00014444361
0.00028951151
0.0005186607
7.3479682e-05
7.3474066e-05
7.3454131e-05
7.3398964e-05
7.3267704e-05
7.3016085e-05
7.2712929e-05
7.3009357e-05
7.6815021e-05
9.5182833e-05
0.00016036324
0.00031428525
0.00051014247
6.8835097e-05
6.8827266e-05
6.8801436e-05
6.8735571e-05
6.8593744e-05
6.836405e-05
6.8235745e-05
6.9234209e-05
7.5403716e-05
0.00010076472
0.00017939076
0.00033780739
0.0005042266
6.4716374e-05
6.4706175e-05
6.4674551e-05
6.4600233e-05
6.4458202e-05
6.4284863e-05
6.4429045e-05
6.6391811e-05
7.5619872e-05
0.0001092241
0.00020043528
0.00035894529
0.00050037283
6.1041501e-05
6.1028932e-05
6.0992164e-05
6.091321e-05
6.0785257e-05
6.0711783e-05
6.1247563e-05
6.4493003e-05
7.7580808e-05
0.00012045028
0.00022225715
0.00037717552
0.0004980107
5.7744396e-05
5.7729653e-05
5.7689074e-05
5.7611142e-05
5.751606e-05
5.7596592e-05
5.8669223e-05
6.3582872e-05
8.1411587e-05
0.00013412437
0.00024370832
0.00039247762
0.00049664628
5.4771313e-05
5.4754847e-05
5.4712615e-05
5.4643526e-05
5.4605384e-05
5.4906753e-05
5.6693486e-05
6.3736861e-05
8.7208044e-05
0.00014971788
0.00026392364
0.00040513366
0.00049590625
5.2078186e-05
5.206076e-05
5.2020025e-05
5.1970154e-05
5.2019282e-05
5.2623661e-05
5.5340604e-05
6.5053658e-05
9.4994185e-05
0.00016655656
0.0002823955
0.0004155487
0.00049553614
4.9628636e-05
4.9611393e-05
4.9576492e-05
4.9559258e-05
4.9733503e-05
5.0741692e-05
5.4651195e-05
6.7643172e-05
0.00010468473
0.00018392817
0.00029893687
0.00042413794
0.00049537652
4.7392458e-05
4.7377004e-05
4.7353699e-05
4.7386176e-05
4.773248e-05
4.9267885e-05
5.4685329e-05
7.1608743e-05
0.00011606686
0.00020119288
0.00031358495
0.0004312733
0.0004953351
4.5344476e-05
4.5332971e-05
4.5328746e-05
4.5432431e-05
4.600877e-05
4.8222045e-05
5.5520138e-05
7.7024461e-05
0.0001288111
0.00021785898
0.00032650009
0.00043726613
0.00049536294
4.3463657e-05
4.3458933e-05
4.3483358e-05
4.3685127e-05
4.4562868e-05
4.7637065e-05
5.7244888e-05
8.3911106e-05
0.00014251076
0.00023360813
0.00033789056
0.00044236711
0.00049543702
4.1732429e-05
4.173814e-05
4.1803329e-05
4.2136614e-05
4.3403329e-05
4.7559127e-05
5.9952699e-05
9.2216774e-05
0.00015673762
0.00024827797
0.00034796834
0.00044677301
0.00049554866
4.0136167e-05
4.015697e-05
4.0278149e-05
4.0784372e-05
4.2547129e-05
4.8047288e-05
6.3728702e-05
0.00010180889
0.00017109625
0.00026182259
0.0003569282
0.00045063571
0.00049569618
3.8662802e-05
3.8704582e-05
3.8900797e-05
3.9631107e-05
4.2020194e-05
4.9171841e-05
6.8635432e-05
0.00011248166
0.0001852623
0.00027427018
0.00036494028
0.00045407114
0.00049588069
3.7302531e-05
3.7372692e-05
3.7667676e-05
3.8685008e-05
4.1857944e-05
5.1010817e-05
7.4697748e-05
0.00012397798
0.00019899861
0.00028568912
0.00037214923
0.00045716736
0.00049610392
3.6047628e-05
3.6155447e-05
3.6578682e-05
3.7960182e-05
4.2105652e-05
5.3644139e-05
8.1890768e-05
0.00013601989
0.00021215193
0.00029616534
0.00037867608
0.00045999117
0.00049636709
3.4892327e-05
3.5049398e-05
3.5637398e-05
3.7477201e-05
4.2818255e-05
5.7145346e-05
9.013449e-05
0.00014833915
0.00022463802
0.00030578893
0.00038462123
0.0004625934
0.00049667064
3.383279e-05
3.4053569e-05
3.4851411e-05
3.7263736e-05
4.4059204e-05
6.1571463e-05
9.9297382e-05
0.00016070076
0.00023642316
0.00031464714
0.00039006764
0.00046501299
0.00049701416
3.2867148e-05
3.316962e-05
3.4232755e-05
3.7355161e-05
4.589791e-05
6.6952452e-05
0.00010920861
0.00017291579
0.00024750737
0.00032282077
0.00039508379
0.00046727996
0.00049739654
3.1995627e-05
3.2402111e-05
3.3798454e-05
3.7794962e-05
4.8405427e-05
7.3282437e-05
0.00011967597
0.00018484396
0.00025791153
0.00033038288
0.00039972633
0.00046941774
0.00049781615
3.1220754e-05
3.1758868e-05
3.3571166e-05
3.8634688e-05
5.16483e-05
8.0515035e-05
0.00013050501
0.00019638896
0.00026766839
0.00033739835
0.00040404224
0.00047144508
0.00049827105
3.0547674e-05
3.1251458e-05
3.3579859e-05
3.9933128e-05
5.5680955e-05
8.8564412e-05
0.00014151526
0.0002074904
0.00027681665
0.00034392427
0.00040806987
0.00047336165
0.00049875826
2.9984563e-05
3.0895778e-05
3.3860461e-05
4.1754322e-05
6.0537583e-05
9.731215e-05
0.00015255089
0.00021811501
0.00028539698
0.00035000997
0.00041183983
0.00047517683
0.00049927448
2.9543171e-05
3.071274e-05
3.4456303e-05
4.416415e-05
6.6225004e-05
0.00010661843
0.00016348529
0.00022824914
0.00029345001
0.00035569879
0.00041537498
0.00047690098
0.00049981638
2.9239498e-05
3.072904e-05
3.5418148e-05
4.7225363e-05
7.2718215e-05
0.00011633497
0.00017422102
0.00023789273
0.00030101459
0.00036102772
0.000418694
0.00047854313
0.00050038114
2.9094595e-05
3.0977951e-05
3.6803501e-05
5.0991333e-05
7.9959882e-05
0.00012631696
0.00018468652
0.00024705469
0.00030812684
0.00036602759
0.00042181619
0.00048011509
0.00050096676
2.9135496e-05
3.1500046e-05
3.867486e-05
5.5499189e-05
8.7864165e-05
0.00013643209
0.00019483195
0.00025575015
0.00031482084
0.00037072328
0.00042475508
0.00048162855
0.00050157201
2.9396231e-05
3.2343669e-05
4.1096631e-05
6.0763504e-05
9.6324074e-05
0.00014656574
0.00020462432
0.0002639967
0.00032112526
0.00037513788
0.00042753007
0.00048308916
0.00050219529
2.9918841e-05
3.3564909e-05
4.4130585e-05
6.6771886e-05
0.00010522079
0.00015662302
0.00021404418
0.00027181505
0.00032706606
0.00037928747
0.00043015898
0.00048450266
0.00050283511
3.0754241e-05
3.5226725e-05
4.7830033e-05
7.3483555e-05
0.00011443287
0.00016652783
0.00022308101
0.00027922363
0.00033266468
0.00038319522
0.0004326545
0.00048587308
0.00050348988
3.1962695e-05
3.7396842e-05
5.2233349e-05
8.0831458e-05
0.00012384408
0.00017622137
0.00023173237
0.0002862417
0.00033793723
0.00038688253
0.00043502774
0.00048720352
0.00050415803
3.3613505e-05
4.0144092e-05
5.7357851e-05
8.8727398e-05
0.00013334837
0.00018565852
0.00023999855
0.00029288457
0.000342906
0.00039036649
0.00043728791
0.00048849634
0.00050483797
3.578341e-05
4.3533077e-05
6.3195315e-05
9.7069237e-05
0.00014285307
0.00019480684
0.00024788469
0.00029916231
0.00034759331
0.00039366187
0.0004394427
0.00048975325
0.00050552812
3.8553072e-05
4.7617439e-05
6.9710124e-05
0.00010574827
0.00015227866
0.00020364079
0.0002553933
0.00030509328
0.00035201759
0.00039678118
0.00044149842
0.00049097545
0.00050622692
4.2001161e-05
5.243257e-05
7.6840728e-05
0.00011465642
0.00016156002
0.00021214495
0.00026252194
0.00031069682
0.000356195
0.00039973504
0.0004434603
0.00049216367
0.00050693283
4.6195927e-05
5.7988971e-05
8.4503823e-05
0.00012369061
0.00017064178
0.00022029902
0.00026928194
0.00031598928
0.00036013925
0.00040253238
0.00044533252
0.00049331826
0.00050764432
5.1185024e-05
6.4267718e-05
9.2600641e-05
0.0001327565
0.00017947939
0.00022808589
0.0002756847
0.00032098503
0.00036386202
0.00040518056
0.00044711836
0.00049443921
0.00050835988
5.6985364e-05
7.1219294e-05
0.00010102457
0.00014177165
0.00018802207
0.00023550303
0.0002817403
0.0003256963
0.00036737303
0.00040768556
0.00044882026
0.00049552614
0.00050907799
6.3575478e-05
7.876608e-05
0.00010966807
0.00015065101
0.000196237
0.00024254863
0.00028745745
0.0003301333
0.00037068023
0.00041005205
0.00045043987
0.00049657836
0.00050979712
7.089348e-05
8.6809021e-05
0.00011841799
0.00015932162
0.00020409989
0.00024922138
0.00029284335
0.00033430426
0.00037378983
0.00041228347
0.00045197811
0.00049759483
0.0005105157
7.8838255e-05
9.5225368e-05
0.00012716547
0.00016772588
0.00021159051
0.00025551998
0.00029790357
0.00033821554
0.00037670647
0.00041438213
0.00045343517
0.00049857418
0.00051123213
8.7271736e-05
0.00010388137
0.00013581416
0.00017581506
0.00021869191
0.00026144296
0.00030264213
0.00034187166
0.00037943323
0.00041634918
0.00045481054
0.00049951469
0.00051194472
9.6036176e-05
0.00011264288
0.00014427884
0.0001835485
0.00022538998
0.00026698861
0.00030706159
0.00034527554
0.0003819718
0.00041818477
0.00045610303
0.00050041431
0.00051265168
0.00010496809
0.00012138217
0.00015248587
0.000190893
0.00023167333
0.00027215515
0.00031116331
0.00034842864
0.0003843226
0.00041988807
0.00045731082
0.00050127063
0.00051335112
0.00011391058
0.00012998321
0.00016037324
0.00019782234
0.00023753332
0.00027694107
0.0003149478
0.00035133128
0.00038648497
0.00042145743
0.00045843153
0.00050208095
0.00051404099
0.00012272247
0.00013834517
0.00016789033
0.00020431694
0.00024296423
0.00028134551
0.00031841514
0.00035398295
0.00038845745
0.00042289051
0.00045946231
0.00050284226
0.00051471911
0.00013128387
0.00014638427
0.00017499753
0.00021036345
0.0002479634
0.00028536874
0.00032156549
0.00035638278
0.00039023807
0.00042418454
0.00046039997
0.0005035514
0.00051538316
0.00013949842
0.00015403428
0.00018166558
0.00021595442
0.00025253141
0.00028901261
0.00032439959
0.00035852994
0.00039182471
0.00042533656
0.00046124116
0.00050420509
0.00051603067
0.00014729305
0.00016124583
0.00018787483
0.00022108782
0.00025667211
0.00029228085
0.0003269192
0.00036042414
0.00039321547
0.00042634369
0.00046198263
0.0005048001
0.0005166591
0.00015461611
0.00016798499
0.00019361429
0.00022576658
0.0002603925
0.00029517937
0.00032912752
0.000362066
0.00039440907
0.00042720348
0.00046262138
0.0005053334
0.00051726585
0.00016143468
0.00017423145
0.00019888062
0.00022999796
0.00026370258
0.00029771634
0.0003310295
0.00036345745
0.0003954052
0.0004279142
0.00046315498
0.00050580232
0.00051784835
0.00016773142
0.00017997642
0.00020367704
0.00023379303
0.00026661509
0.00029990218
0.00033263198
0.00036460198
0.00039620483
0.00042847516
0.00046358175
0.00050620471
0.0005184041
0.00017350166
0.00018522057
0.00020801227
0.00023716599
0.00026914509
0.00030174948
0.00033394379
0.00036550486
0.00039681041
0.00042888686
0.00046390099
0.0005065391
0.00051893074
0.0001787506
0.00018997216
0.0002118995
0.00024013365
0.00027130963
0.0003032727
0.00033497568
0.00036617319
0.00039722605
0.00042915124
0.00046411315
0.0005068048
0.00051942617
0.00018349096
0.00019424525
0.00021535541
0.00024271479
0.00027312733
0.000304488
0.00033574017
0.00036661585
0.00039745758
0.00042927175
0.00046421989
0.000507002
0.00051988856
0.00018774097
0.00019805828
0.00021839934
0.00024492972
0.000274618
0.00030541286
0.00033625139
0.00036684345
0.00039751247
0.00042925335
0.00046422413
0.00050713179
0.00052031644
0.00019152273
0.00020143278
0.00022105255
0.00024679978
0.00027580227
0.00030606581
0.00033652478
0.0003668681
0.00039739978
0.00042910245
0.00046413004
0.00050719619
0.00052070874
0.00019486094
0.00020439237
0.00022333755
0.00024834693
0.00027670125
0.00030646606
0.00033657681
0.00036670321
0.00039712994
0.00042882681
0.00046394295
0.00050719804
0.0005210648
0.00019778184
0.00020696197
0.0002252776
0.00024959344
0.00027733625
0.00030663327
0.00033642473
0.00036636321
0.00039671455
0.00042843537
0.00046366921
0.00050714099
0.00052138437
0.00020031247
0.00020916708
0.00022689625
0.00025056154
0.00027772849
0.00030658724
0.00033608624
0.0003658633
0.00039616615
0.00042793799
0.00046331602
0.00050702931
0.00052166763
0.00020248004
0.00021103335
0.00022821703
0.00025127325
0.00027789895
0.00030634765
0.00033557923
0.00036521912
0.00039549793
0.00042734529
0.00046289127
0.00050686781
0.00052191516
0.00020431148
0.00021258617
0.00022926311
0.00025175013
0.00027786812
0.00030593389
0.00033492155
0.00036444655
0.00039472346
0.00042666833
0.00046240327
0.00050666169
0.00052212789
0.00020583312
0.00021385036
0.00023005714
0.00025201313
0.00027765588
0.00030536487
0.00033413079
0.00036356145
0.00039385649
0.00042591845
0.00046186065
0.00050641635
0.00052230706
0.00020707046
0.00021484999
0.00023062104
0.0002520825
0.00027728141
0.00030465884
0.00033322408
0.00036257938
0.00039291067
0.000425107
0.00046127205
0.00050613733
0.00052245419
0.00020804801
0.0002156082
0.0002309759
0.00025197763
0.00027676305
0.00030383334
0.00033221795
0.00036151552
0.00039189936
0.00042424514
0.00046064607
0.00050583011
0.00052257103
0.00020878915
0.00021614713
0.00023114191
0.00025171706
0.00027611825
0.00030290505
0.00033112817
0.00036038441
0.00039083546
0.00042334371
0.00045999101
0.00050550007
0.00052265945
0.0002093161
0.0002164878
0.00023113824
0.00025131837
0.00027536354
0.00030188972
0.00032996971
0.00035919989
0.00038973128
0.00042241304
0.0004593148
0.00050515233
0.0005227215
0.00020964984
0.00021665013
0.00023098308
0.00025079817
0.00027451448
0.00030080218
0.00032875662
0.00035797496
0.0003885984
0.00042146284
0.00045862492
0.00050479172
0.00052275925
0.00020981015
0.00021665287
0.00023069354
0.00025017208
0.00027358563
0.00029965625
0.000327502
0.00035672176
0.00038744761
0.00042050217
0.00045792827
0.00050442273
0.00052277483
0.00020981557
0.00021651365
0.00023028571
0.00024945474
0.00027259058
0.00029846478
0.00032621796
0.00035545148
0.00038628882
0.00041953929
0.00045723114
0.00050404945
0.00052277037
0.00020968346
0.00021624895
0.00022977463
0.00024865981
0.00027154194
0.00029723961
0.00032491562
0.00035417435
0.00038513106
0.00041858171
0.00045653921
0.00050367556
0.00052274794
0.00020942997
0.00021587414
0.00022917432
0.00024779995
0.00027045133
0.00029599159
0.00032360514
0.00035289963
0.00038398248
0.0004176361
0.00045585749
0.00050330432
0.00052270957
0.00020907014
0.00021540351
0.00022849781
0.0002468869
0.00026932946
0.00029473062
0.00032229566
0.00035163564
0.00038285029
0.00041670837
0.00045519035
0.00050293859
0.00052265721
0.0002086179
0.00021485031
0.00022775715
0.00024593147
0.00026818612
0.00029346568
0.00032099543
0.00035038977
0.00038174086
0.00041580363
0.00045454156
0.00050258081
0.00052259272
0.00020808615
0.00021422679
0.00022696346
0.00024494359
0.00026703018
0.00029220483
0.00031971175
0.00034916851
0.00038065968
0.00041492623
0.00045391426
0.00050223301
0.00052251783
0.00020748674
0.00021354421
0.00022612695
0.00024393232
0.00026586973
0.00029095529
0.00031845107
0.00034797748
0.00037961143
0.0004140798
0.00045331091
0.00050189543
0.00052243413
0.00020683061
0.00021281296
0.000225257
0.00024290592
0.000264712
0.00028972345
0.000317219
0.00034682148
0.00037860002
0.00041326723
0.00045273325
0.00050156781
0.00052234293
0.00020612777
0.00021204251
0.00022436214
0.00024187187
0.00026356348
0.00028851496
0.0003160204
0.00034570458
0.00037762866
0.00041249077
0.00045218167
0.00050125102
0.00052224545
0.00020538738
0.00021124153
0.00022345015
0.0002408369
0.00026242993
0.00028733469
0.00031485936
0.00034463008
0.0003766998
0.00041175188
0.0004516568
0.00050094657
0.00052214288
0.00020461777
0.00021041791
0.00022252805
0.00023980705
0.00026131645
0.0002861869
0.00031373935
0.0003436007
0.00037581536
0.00041105102
0.00045115886
0.00050065639
0.00052203652
0.00020382653
0.0002095788
0.00022160219
0.00023878771
0.00026022748
0.00028507517
0.00031266318
0.00034261846
0.00037497628
0.00041038844
0.00045068906
0.00050038149
0.00052192753
0.00020302053
0.00020873065
0.00022067826
0.00023778364
0.00025916687
0.00028400251
0.00031163305
0.00034168473
0.00037418305
0.00040976439
0.00045024827
0.0005001226
0.000521817
0.00020220596
0.00020787928
0.00021976133
0.00023679906
0.00025813793
0.0002829714
0.00031065068
0.00034080027
0.0003734354
0.00040917954
0.00044983686
0.00049988012
0.00052170585
0.00020138838
0.00020702988
0.00021885593
0.00023583763
0.00025714347
0.00028198379
0.00030971709
0.00033996505
0.00037273367
0.00040863406
0.00044945487
0.00049965421
0.00052159494
0.00020057279
0.0002061871
0.00021796602
0.0002349025
0.00025618576
0.00028104111
0.00030883271
0.00033917901
0.00037207796
0.00040812773
0.00044910204
0.00049944483
0.00052148499
0.00019976362
0.00020535506
0.0002170951
0.00023399637
0.00025526669
0.00028014428
0.00030799742
0.00033844225
0.00037146797
0.00040766008
0.00044877787
0.00049925175
0.00052137665
0.00019896481
0.00020453737
0.0002162462
0.00023312153
0.0002543876
0.0002792934
0.00030721141
0.00033775453
0.00037090312
0.00040723036
0.00044848167
0.00049907462
0.00052127045
0.00019817983
0.00020373723
0.00021542196
0.00023227975
0.00025354912
0.00027848891
0.00030647457
0.00033711528
0.00037038256
0.0004068376
0.00044821261
0.00049891299
0.00052116686
0.00019741174
0.0002029574
0.00021462442
0.0002314722
0.00025275196
0.00027773091
0.00030578647
0.00033652368
0.0003699052
0.00040648065
0.00044796971
0.00049876633
0.00052106628
0.00019666307
0.0002022001
0.00021385525
0.00023069997
0.00025199659
0.00027701925
0.00030514647
0.00033597868
0.00036946978
0.00040615825
0.00044775191
0.00049863405
0.00052096902
0.00019593596
0.00020146718
0.00021311584
0.00022996386
0.00025128318
0.00027635356
0.00030455368
0.00033547904
0.00036907489
0.000405869
0.00044755807
0.00049851551
0.00052087536
0.00019523221
0.00020076023
0.00021240731
0.00022926445
0.00025061171
0.00027573322
0.00030400703
0.00033502337
0.00036871898
0.00040561142
0.00044738701
0.00049841005
0.0005207855
0.00019455334
0.00020008054
0.00021173054
0.00022860206
0.00024998191
0.00027515744
0.00030350528
0.00033461014
0.0003684004
0.00040538397
0.0004472375
0.00049831697
0.0005206996
0.0001939006
0.00019942915
0.00021108615
0.00022797679
0.00024939334
0.00027462524
0.00030304704
0.0003342377
0.00036811745
0.00040518506
0.0004471083
0.00049823559
0.00052061778
0.00019327499
0.00019880687
0.00021047456
0.00022738855
0.00024884536
0.00027413551
0.00030263082
0.00033390432
0.00036786836
0.0004050131
0.00044699818
0.0004981652
0.00052054013
0.00019267729
0.00019821428
0.00020989599
0.00022683708
0.00024833721
0.00027368701
0.00030225501
0.00033360821
0.00036765132
0.00040486647
0.00044690589
0.00049810512
0.00052046668
0.00019210806
0.00019765176
0.00020935045
0.00022632194
0.00024786794
0.00027327837
0.00030191793
0.00033334752
0.0003674645
0.00040474356
0.00044683022
0.00049805466
0.00052039746
0.00019156767
0.00019711952
0.00020883781
0.00022584254
0.00024743653
0.00027290815
0.00030161786
0.00033312039
0.0003673061
0.00040464277
0.00044676995
0.00049801315
0.00052033245
0.00019105632
0.00019661758
0.00020835777
0.00022539817
0.00024704183
0.00027257482
0.00030135299
0.00033292491
0.00036717428
0.00040456254
0.00044672394
0.00049797993
0.00052027161
0.00019057404
0.00019614582
0.0002079099
0.00022498801
0.0002466826
0.00027227679
0.00030112151
0.00033275921
0.00036706725
0.00040450133
0.00044669102
0.00049795438
0.0005202149
0.00019012071
0.00019570397
0.00020749363
0.00022461113
0.00024635752
0.00027201245
0.00030092159
0.0003326214
0.00036698325
0.00040445765
0.00044667012
0.00049793588
0.00052016222
0.00018969609
0.00019529165
0.0002071083
0.0002242665
0.00024606523
0.00027178011
0.0003007514
0.00033250962
0.00036692056
0.00040443004
0.00044666017
0.00049792383
0.0005201135
0.00018929979
0.00019490835
0.00020675313
0.00022395303
0.0002458043
0.0002715781
0.00030060909
0.00033242202
0.00036687748
0.00040441711
0.00044666016
0.00049791768
0.00052006863
0.00018893135
0.00019455346
0.00020642729
0.00022366955
0.00024557327
0.00027140472
0.00030049286
0.00033235684
0.00036685239
0.00040441752
0.00044666911
0.00049791689
0.00052002749
0.00018859018
0.00019422628
0.00020612984
0.00022341487
0.00024537066
0.00027125827
0.00030040091
0.0003323123
0.00036684371
0.00040442997
0.00044668611
0.00049792092
0.00051998996
0.00018827561
0.00019392603
0.00020585978
0.00022318772
0.00024519495
0.00027113707
0.00030033149
0.0003322867
0.00036684992
0.00040445323
0.00044671028
0.0004979293
0.0005199559
0.00018798692
0.00019365188
0.00020561609
0.00022298682
0.00024504463
0.00027103945
0.00030028287
0.00033227842
0.00036686957
0.00040448614
0.00044674078
0.00049794156
0.00051992519
0.00018772328
0.00019340292
0.00020539766
0.00022281085
0.00024491819
0.00027096375
0.00030025338
0.00033228584
0.00036690127
0.00040452757
0.00044677684
0.00049795724
0.00051989766
0.00018748383
0.0001931782
0.00020520337
0.00022265851
0.00024481414
0.00027090837
0.0003002414
0.00033230746
0.00036694368
0.00040457648
0.00044681771
0.00049797595
0.00051987318
0.00018726767
0.00019297672
0.00020503209
0.00022252844
0.00024473097
0.00027087173
0.00030024535
0.0003323418
0.00036699556
0.00040463187
0.0004468627
0.00049799727
0.00051985159
0.00018707385
0.00019279747
0.00020488263
0.00022241933
0.00024466722
0.00027085229
0.00030026372
0.00033238749
0.0003670557
0.00040469282
0.00044691117
0.00049802085
0.00051983275
0.00018690137
0.00019263938
0.00020475383
0.00022232986
0.00024462147
0.00027084857
0.00030029506
0.00033244318
0.000367123
0.00040475845
0.00044696251
0.00049804634
0.00051981649
0.00018674925
0.00019250139
0.0002046445
0.00022225871
0.00024459229
0.00027085912
0.00030033799
0.00033250763
0.00036719639
0.00040482795
0.00044701616
0.00049807342
0.00051980267
0.00018661645
0.00019238243
0.00020455346
0.0002222046
0.00024457833
0.00027088257
0.00030039118
0.00033257966
0.00036727489
0.00040490056
0.00044707161
0.00049810179
0.00051979114
0.00018650195
0.00019228142
0.00020447955
0.00022216627
0.00024457826
0.00027091759
0.00030045338
0.00033265816
0.00036735757
0.00040497559
0.00044712838
0.00049813118
0.00051978175
0.0001864047
0.00019219727
0.00020442161
0.00022214248
0.0002445908
0.00027096291
0.0003005234
0.00033274206
0.00036744359
0.00040505239
0.00044718603
0.00049816133
0.00051977435
0.00018632367
0.0001921289
0.00020437849
0.00022213202
0.00024461471
0.00027101732
0.00030060012
0.00033283041
0.00036753215
0.00040513036
0.00044724415
0.00049819201
0.0005197688
0.00018625783
0.00019207526
0.00020434908
0.00022213373
0.00024464882
0.00027107968
0.00030068248
0.00033292228
0.0003676225
0.00040520896
0.00044730239
0.00049822299
0.00051976496
0.00018620615
0.0001920353
0.00020433228
0.00022214648
0.00024469198
0.00027114888
0.00030076949
0.00033301683
0.00036771398
0.00040528768
0.0004473604
0.00049825408
0.00051976269
0.00018616763
0.00019200799
0.00020432703
0.00022216918
0.00024474312
0.00027122391
0.00030086023
0.00033311327
0.00036780595
0.00040536608
0.00044741787
0.00049828509
0.00051976186
0.00018614128
0.00019199231
0.0002043323
0.00022220078
0.0002448012
0.0002713038
0.00030095382
0.00033321088
0.00036789786
0.00040544373
0.00044747454
0.00049831586
0.00051976233
0.00018612613
0.00019198729
0.00020434708
0.00022224028
0.00024486526
0.00027138763
0.00030104948
0.00033330899
0.00036798918
0.00040552028
0.00044753016
0.00049834623
0.00051976398
0.00018612124
0.00019199199
0.00020437043
0.00022228673
0.00024493438
0.00027147458
0.00030114647
0.000333407
0.00036807946
0.00040559538
0.00044758452
0.00049837607
0.0005197667
0.0001861257
0.00019200548
0.00020440143
0.00022233923
0.00024500769
0.00027156386
0.00030124412
0.00033350437
0.00036816829
0.00040566875
0.00044763742
0.00049840527
0.00051977036
0.00018613864
0.00019202689
0.00020443919
0.00022239693
0.00024508441
0.00027165475
0.00030134182
0.00033360061
0.0003682553
0.00040574016
0.00044768872
0.00049843373
0.00051977487
0.00018615919
0.00019205536
0.00020448288
0.00022245902
0.00024516378
0.00027174659
0.00030143901
0.00033369529
0.00036834018
0.00040580938
0.00044773829
0.00049846136
0.00051978012
0.00018618656
0.00019209011
0.00020453173
0.00022252474
0.00024524511
0.00027183878
0.00030153519
0.00033378803
0.00036842266
0.00040587625
0.00044778601
0.0004984881
0.00051978602
0.00018621996
0.00019213034
0.00020458496
0.0002225934
0.00024532776
0.00027193076
0.00030162993
0.00033387849
0.0003685025
0.0004059406
0.00044783179
0.00049851377
0.00051979246
0.00018625866
0.00019217534
0.0002046419
0.00022266434
0.00024541114
0.00027202203
0.00030172282
0.00033396636
0.0003685795
0.00040600231
0.00044787553
0.00049853819
0.00051979936
0.00018630196
0.00019222442
0.00020470186
0.00022273694
0.00024549471
0.00027211215
0.0003018135
0.0003340514
0.00036865349
0.00040606126
0.00044791708
0.00049856132
0.00051980662
0.00018634917
0.00019227691
0.00020476423
0.00022281063
0.00024557798
0.0002722007
0.00030190166
0.00033413337
0.00036872431
0.00040611736
0.00044795636
0.00049858316
0.00051981413
0.00018639968
0.00019233221
0.00020482844
0.00022288489
0.00024566049
0.00027228731
0.00030198702
0.00033421209
0.00036879184
0.00040617048
0.00044799329
0.00049860377
0.00051982185
0.00018645289
0.00019238974
0.00020489393
0.00022295924
0.00024574184
0.00027237168
0.00030206936
0.0003342874
0.00036885598
0.00040622054
0.0004480279
0.00049862318
0.00051982971
0.00018650825
0.00019244896
0.00020496023
0.00022303325
0.00024582168
0.00027245352
0.00030214848
0.00033435919
0.00036891664
0.00040626749
0.00044806023
0.00049864142
0.00051983765
0.00018656525
0.00019250939
0.00020502688
0.00022310653
0.00024589968
0.0002725326
0.00030222422
0.00033442734
0.00036897373
0.00040631138
0.00044809034
0.00049865851
0.00051984563
0.00018662342
0.00019257058
0.00020509347
0.00022317873
0.00024597558
0.00027260873
0.00030229647
0.00033449178
0.00036902724
0.00040635226
0.0004481183
0.00049867448
0.00051985361
0.00018668232
0.0001926321
0.00020515964
0.00022324955
0.00024604915
0.00027268177
0.00030236514
0.00033455244
0.00036907724
0.00040639021
0.00044814416
0.00049868935
0.00051986154
0.00018674156
0.00019269359
0.00020522504
0.00022331872
0.0002461202
0.00027275158
0.00030243012
0.00033460935
0.00036912379
0.00040642532
0.00044816801
0.00049870318
0.0005198694
0.00018680077
0.00019275471
0.0002052894
0.00022338601
0.00024618856
0.00027281805
0.00030249139
0.00033466256
0.00036916698
0.00040645769
0.00044818992
0.000498716
0.00051987715
0.00018685963
0.00019281514
0.00020535245
0.00022345122
0.00024625407
0.00027288108
0.00030254896
0.00033471212
0.0003692069
0.00040648741
0.00044820998
0.00049872785
0.00051988477
0.00018691782
0.00019287461
0.00020541394
0.00022351416
0.00024631661
0.00027294064
0.00030260284
0.00033475811
0.00036924365
0.00040651458
0.00044822825
0.00049873877
0.00051989223
0.00018697509
0.00019293286
0.00020547366
0.00022357464
0.00024637608
0.0002729967
0.00030265307
0.00033480061
0.00036927731
0.00040653928
0.00044824482
0.00049874879
0.0005198995
0.00018703117
0.00019298966
0.00020553141
0.00022363253
0.00024643241
0.00027304925
0.00030269971
0.00033483967
0.00036930797
0.0004065616
0.00044825973
0.00049875792
0.00051990655
0.00018708583
0.00019304479
0.00020558702
0.00022368773
0.00024648555
0.00027309831
0.00030274278
0.00033487539
0.00036933572
0.00040658161
0.00044827304
0.00049876619
0.00051991335
0.00018713887
0.00019309807
0.00020564034
0.00022374015
0.00024653547
0.0002731439
0.00030278237
0.00033490784
0.00036936063
0.00040659939
0.00044828478
0.0004987736
0.00051991988
0.00018719013
0.00019314936
0.00020569128
0.00022378973
0.00024658218
0.00027318606
0.00030281854
0.00033493712
0.00036938282
0.000406615
0.00044829501
0.00049878017
0.00051992612
0.00018723948
0.00019319853
0.00020573975
0.00022383644
0.00024662569
0.00027322486
0.0003028514
0.00033496334
0.00036940238
0.00040662855
0.0004483038
0.00049878591
0.00051993205
0.00018728681
0.00019324552
0.00020578572
0.0002238803
0.00024666607
0.0002732604
0.00030288107
0.00033498665
0.00036941945
0.00040664015
0.00044831122
0.00049879086
0.00051993767
0.00018733205
0.00019329027
0.00020582917
0.00022392132
0.00024670338
0.00027329281
0.00030290771
0.0003350072
0.00036943419
0.00040664992
0.00044831738
0.00049879508
0.00051994299
0.00018737515
0.00019333275
0.0002058701
0.00022395958
0.00024673775
0.00027332222
0.00030293148
0.00033502517
0.00036944677
0.00040665804
0.00044832238
0.00049879864
0.00051994801
0.00018741609
0.00019337294
0.00020590854
0.00022399514
0.00024676928
0.00027334878
0.00030295257
0.00033504077
0.00036945738
0.00040666465
0.00044832636
0.00049880161
0.00051995277
0.00018745486
0.00019341086