/*--------------------------------*- C++ -*----------------------------------*\
| =========                 |                                                 |
| \\      /  F ield         | OpenFOAM: The Open Source CFD Toolbox           |
|  \\    /   O peration     | Version:  2506                                  |
|   \\  /    A nd           | Website:  www.openfoam.com                      |
|    \\/     M anipulation  |                                                 |
\*---------------------------------------------------------------------------*/
FoamFile
{
    version     2.0;
    format      ascii;
    arch        "LSB;label=32;scalar=64";
    class       volScalarField;
    location    "5000/water";
    object      nut;
}
// * * * * * * * * * * * * * * * * * * * * * * * * * * * * * * * * * * * * * //

dimensions      [0 2 -1 0 0 0 0];

internalField   nonuniform List<scalar> 
2600
(
4.0562043e-05
4.0561942e-05
4.0561944e-05
4.0561981e-05
4.0561942e-05
4.0561434e-05
4.0558261e-05
4.0540002e-05
4.0435343e-05
3.98338e-05
3.6541397e-05
2.4161555e-05
1.4889524e-05
3.944741e-05
3.9447468e-05
3.944759e-05
3.9447676e-05
3.9447275e-05
3.9444342e-05
3.9428907e-05
3.9352895e-05
3.8988431e-05
3.7314814e-05
3.0763187e-05
1.7536144e-05
1.684056e-05
3.852265e-05
3.852264e-05
3.8522725e-05
3.8522528e-05
3.8520597e-05
3.8510798e-05
3.8466747e-05
3.8277827e-05
3.7500368e-05
3.454641e-05
2.5814945e-05
1.4669956e-05
1.7712619e-05
3.7742032e-05
3.774193e-05
3.7741811e-05
3.7740766e-05
3.7735283e-05
3.7711707e-05
3.7617453e-05
3.7258039e-05
3.5961308e-05
3.177518e-05
2.2061889e-05
1.3531464e-05
1.7967898e-05
3.7073562e-05
3.7073366e-05
3.7072781e-05
3.7069955e-05
3.7057916e-05
3.7011651e-05
3.6843992e-05
3.6266509e-05
3.4405655e-05
2.9188861e-05
1.9425178e-05
1.3345943e-05
1.7902414e-05
3.6493786e-05
3.6493393e-05
3.6491924e-05
3.648598e-05
3.646354e-05
3.6384687e-05
3.612226e-05
3.5294625e-05
3.2873382e-05
2.6881541e-05
1.771645e-05
1.3793839e-05
1.7689846e-05
3.5985207e-05
3.5984445e-05
3.5981496e-05
3.5970726e-05
3.5933497e-05
3.5812307e-05
3.5437992e-05
3.4343601e-05
3.1395257e-05
2.4892541e-05
1.6781972e-05
1.4727875e-05
1.7427344e-05
3.5534568e-05
3.55332e-05
3.5528007e-05
3.5510417e-05
3.5453869e-05
3.5281761e-05
3.478374e-05
3.3418009e-05
2.9989903e-05
2.3242727e-05
1.6521213e-05
1.605365e-05
1.7168093e-05
3.5131649e-05
3.5129373e-05
3.5121029e-05
3.5094485e-05
3.5014364e-05
3.4784646e-05
3.4156253e-05
3.2521766e-05
2.8667649e-05
2.1957692e-05
1.6869959e-05
1.7676047e-05
1.694009e-05
3.4768438e-05
3.47649e-05
3.4752406e-05
3.4714802e-05
3.4607522e-05
3.4315777e-05
3.3554458e-05
3.16563e-05
2.7438403e-05
2.1076946e-05
1.7774701e-05
1.9481897e-05
1.6755877e-05
3.4438571e-05
3.443338e-05
3.4415717e-05
3.4365168e-05
3.4228127e-05
3.3872266e-05
3.2977968e-05
3.0820513e-05
2.6321667e-05
2.064959e-05
1.9168673e-05
2.1348725e-05
1.6617712e-05
3.4136931e-05
3.4129689e-05
3.4105903e-05
3.4040932e-05
3.3872746e-05
3.3452766e-05
3.2426062e-05
3.0012536e-05
2.5355877e-05
2.0719809e-05
2.0958175e-05
2.3166793e-05
1.6521078e-05
3.3859367e-05
3.3849701e-05
3.3819003e-05
3.3738723e-05
3.3539365e-05
3.3056856e-05
3.1897087e-05
2.923354e-05
2.4602257e-05
2.1309035e-05
2.3024752e-05
2.4858007e-05
1.6457822e-05
3.3602495e-05
3.3590098e-05
3.355197e-05
3.3456247e-05
3.3227088e-05
3.2684517e-05
3.1388405e-05
2.8493549e-05
2.4138758e-05
2.2402735e-05
2.5241354e-05
2.6381456e-05
1.6418929e-05
3.3363555e-05
3.334823e-05
3.3302533e-05
3.3192135e-05
3.2935885e-05
3.2335692e-05
3.0897111e-05
2.781812e-05
2.4044358e-05
2.3946907e-05
2.7493335e-05
2.7726694e-05
1.6396422e-05
3.3140311e-05
3.3122024e-05
3.3069114e-05
3.2945826e-05
3.2666358e-05
3.2009929e-05
3.0421904e-05
2.725306e-05
2.4379894e-05
2.5855075e-05
2.9693858e-05
2.8902281e-05
1.6384202e-05
3.2930983e-05
3.2909915e-05
3.2850758e-05
3.2717477e-05
3.2419519e-05
3.1706209e-05
2.9966345e-05
2.6863467e-05
2.5173338e-05
2.8023002e-05
3.178848e-05
2.9925861e-05
1.6378087e-05
3.27342e-05
3.2710811e-05
3.2647097e-05
3.2507877e-05
3.219656e-05
3.1423099e-05
2.9543334e-05
2.6725088e-05
2.6414165e-05
3.0346001e-05
3.3750499e-05
3.0817911e-05
1.6375449e-05
3.254898e-05
3.2524066e-05
3.2458325e-05
3.2318371e-05
3.1998619e-05
3.1159479e-05
2.9179673e-05
2.6909996e-05
2.805682e-05
3.2733297e-05
3.5572231e-05
3.159849e-05
1.6374764e-05
3.2374714e-05
3.234948e-05
3.2285189e-05
3.2150777e-05
3.1826588e-05
3.0916123e-05
2.8918575e-05
2.7471841e-05
3.0030665e-05
3.5115834e-05
3.7256818e-05
3.2285747e-05
1.6375224e-05
3.2211173e-05
3.2187303e-05
3.2128983e-05
3.2007273e-05
3.1681012e-05
3.0698308e-05
2.8817773e-05
2.843585e-05
3.2252929e-05
3.7447133e-05
3.8812576e-05
3.2895331e-05
1.6376448e-05
3.2058522e-05
3.2038256e-05
3.199155e-05
3.1890271e-05
3.1562235e-05
3.051924e-05
2.8942305e-05
2.9795901e-05
3.464125e-05
3.9699499e-05
4.0249838e-05
3.3440303e-05
1.6378293e-05
3.1917349e-05
3.1903563e-05
3.1875268e-05
3.1802262e-05
3.147098e-05
3.0403414e-05
2.9353632e-05
3.1518042e-05
3.7123066e-05
4.1858567e-05
4.1579379e-05
3.3931333e-05
1.6380731e-05
3.1788707e-05
3.1784988e-05
3.1783034e-05
3.1745667e-05
3.1409597e-05
3.0388389e-05
3.0098641e-05
3.3548312e-05
3.9640504e-05
4.3918428e-05
4.2811639e-05
3.4377031e-05
1.638378e-05
3.167417e-05
3.1684884e-05
3.1718215e-05
3.1722747e-05
3.1384108e-05
3.0523333e-05
3.1201976e-05
3.5822343e-05
4.2151079e-05
4.5878175e-05
4.3956334e-05
3.4784314e-05
1.6387467e-05
3.1575896e-05
3.1606239e-05
3.1684577e-05
3.1735683e-05
3.1406919e-05
3.0863671e-05
3.2663378e-05
3.8274457e-05
4.4625624e-05
4.7739784e-05
4.5022274e-05
3.5158739e-05
1.6391813e-05
3.1496714e-05
3.155272e-05
3.1686171e-05
3.1786998e-05
3.1499547e-05
3.1462866e-05
3.445981e-05
4.0844581e-05
4.7045146e-05
4.9506882e-05
4.6017315e-05
3.5504794e-05
1.6396824e-05
3.1440215e-05
3.1528703e-05
3.1727217e-05
3.1880504e-05
3.169423e-05
3.2363743e-05
3.6550942e-05
4.3482184e-05
4.9397839e-05
5.1183995e-05
4.6948402e-05
3.5826124e-05
1.6402494e-05
3.141085e-05
3.1539289e-05
3.1812006e-05
3.2022926e-05
3.2033145e-05
3.3591894e-05
3.8886228e-05
4.6147426e-05
5.1676787e-05
5.2776063e-05
4.782164e-05
3.6125718e-05
1.6408802e-05
3.1414042e-05
3.1590274e-05
3.1944928e-05
3.2226119e-05
3.2564562e-05
3.5152684e-05
4.1411886e-05
4.8810348e-05
5.3878384e-05
5.4288122e-05
4.8642393e-05
3.6406048e-05
1.6415722e-05
3.1456281e-05
3.1688095e-05
3.2130757e-05
3.2509432e-05
3.333648e-05
3.7032008e-05
4.4076505e-05
5.144913e-05
5.6001295e-05
5.5725114e-05
4.9415388e-05
3.6669254e-05
1.642322e-05
3.1545208e-05
3.183974e-05
3.2375386e-05
3.2901321e-05
3.4389411e-05
3.9199974e-05
4.6834633e-05
5.4048187e-05
5.8045689e-05
5.7091637e-05
5.0144339e-05
3.6914943e-05
1.6431248e-05
3.1689662e-05
3.2052668e-05
3.2687145e-05
3.3439134e-05
3.5750338e-05
4.1616208e-05
4.9648332e-05
5.6596557e-05
6.0012741e-05
5.839201e-05
5.0832726e-05
3.7144922e-05
1.6439749e-05
3.1899683e-05
3.2334823e-05
3.3078703e-05
3.4166338e-05
3.74293e-05
4.4235458e-05
5.2487191e-05
5.9086681e-05
6.1904243e-05
5.9630091e-05
5.1482696e-05
3.7361243e-05
1.6448668e-05
3.2186465e-05
3.2694872e-05
3.3569195e-05
3.5127409e-05
3.9419064e-05
4.7012427e-05
5.5327448e-05
6.1513507e-05
6.3722342e-05
6.0809394e-05
5.2096451e-05
3.7565313e-05
1.6457958e-05
3.2562282e-05
3.3142861e-05
3.4185831e-05
3.6361549e-05
4.1697458e-05
4.9905187e-05
5.8150806e-05
6.3873834e-05
6.5469391e-05
6.1933118e-05
5.26774e-05
3.7758158e-05
1.6467586e-05
3.3040474e-05
3.369144e-05
3.4963993e-05
3.7896947e-05
4.4231432e-05
5.2877049e-05
6.0943284e-05
6.6165778e-05
6.7147567e-05
6.3002906e-05
5.3228279e-05
3.7940823e-05
1.6477531e-05
3.3635638e-05
3.4357648e-05
3.5945067e-05
3.9746994e-05
4.6981723e-05
5.589712e-05
6.369425e-05
6.8388431e-05
6.8759336e-05
6.4022596e-05
5.3751054e-05
3.8114079e-05
1.6487766e-05
3.4364224e-05
3.5164902e-05
3.7171979e-05
4.1909159e-05
4.9907181e-05
5.8940027e-05
6.6395667e-05
7.0541368e-05
7.0305659e-05
6.499539e-05
5.424764e-05
3.8278685e-05
1.6498266e-05
3.5245722e-05
3.6144416e-05
3.8683395e-05
4.4366367e-05
5.2968081e-05
6.1985173e-05
6.9041452e-05
7.2624751e-05
7.178941e-05
6.5923873e-05
5.471966e-05
3.8435268e-05
1.6509004e-05
3.6304393e-05
3.7335019e-05
4.0508075e-05
4.7090203e-05
5.6128211e-05
6.5015948e-05
7.1626957e-05
7.463817e-05
7.3213268e-05
6.6810359e-05
5.5168631e-05
3.8584369e-05
1.6519954e-05
3.7571051e-05
3.8780602e-05
4.2660843e-05
5.0044951e-05
5.9355784e-05
6.8018902e-05
7.4148653e-05
7.6582493e-05
7.4579722e-05
6.7656902e-05
5.5595892e-05
3.872645e-05
1.653109e-05
3.9083859e-05
4.0525223e-05
4.5140982e-05
5.3191586e-05
6.2623576e-05
7.0983109e-05
7.6603214e-05
7.845884e-05
7.5890911e-05
6.8465406e-05
5.6002632e-05
3.8861905e-05
1.6542386e-05
4.088691e-05
4.2606863e-05
4.79331e-05
5.6490992e-05
6.5908451e-05
7.3899531e-05
7.8988649e-05
8.0268739e-05
7.7148737e-05
6.9237568e-05
5.6389887e-05
3.8991066e-05
1.6553816e-05
4.3025771e-05
4.5051424e-05
5.1009881e-05
5.9906217e-05
6.919087e-05
7.676014e-05
8.1303265e-05
8.201342e-05
7.8354965e-05
6.9974898e-05
5.6758561e-05
3.911421e-05
1.6565353e-05
4.5540352e-05
4.7868459e-05
5.4335753e-05
6.3403517e-05
7.2453908e-05
7.9558413e-05
8.3546727e-05
8.3693977e-05
7.951114e-05
7.0678713e-05
5.7109426e-05
3.9231566e-05
1.6576974e-05
4.8456711e-05
5.1049449e-05
5.7870625e-05
6.6952752e-05
7.5682782e-05
8.2288862e-05
8.5718425e-05
8.5311368e-05
8.0618598e-05
7.1350139e-05
5.7443133e-05
3.9343314e-05
1.6588653e-05
5.1780113e-05
5.4568625e-05
6.1572935e-05
7.0526865e-05
7.886394e-05
8.4947813e-05
8.7817763e-05
8.6866348e-05
8.167845e-05
7.1990115e-05
5.7760216e-05
3.9449593e-05
1.6600366e-05
5.5491352e-05
5.8385627e-05
6.5401385e-05
7.4100916e-05
8.1987179e-05
8.7531658e-05
8.984404e-05
8.8359439e-05
8.2691571e-05
7.2599393e-05
5.8061096e-05
3.9550499e-05
1.6612087e-05
5.9547207e-05
6.2448896e-05
6.9315556e-05
7.7653773e-05
8.5043642e-05
9.0036938e-05
9.1796373e-05
8.9790901e-05
8.3658586e-05
7.317854e-05
5.8346084e-05
3.9646086e-05
1.662379e-05
6.3884447e-05
6.6699768e-05
7.3278186e-05
8.1167565e-05
8.8025172e-05
9.2460227e-05
9.3673655e-05
9.1160705e-05
8.4579865e-05
7.3727933e-05
5.8615379e-05
3.9736371e-05
1.663545e-05
6.8427308e-05
7.1077051e-05
7.7255166e-05
8.4626028e-05
9.0924137e-05
9.4798061e-05
9.5474521e-05
9.246853e-05
8.5455522e-05
7.4247764e-05
5.8869076e-05
3.9821328e-05
1.664704e-05
7.3095501e-05
7.5520253e-05
8.1214697e-05
8.801419e-05
9.373333e-05
9.7046922e-05
9.7197357e-05
9.3713763e-05
8.6285419e-05
7.4738042e-05
5.9107164e-05
3.9900895e-05
1.6658531e-05
7.7811239e-05
7.9972279e-05
8.5127246e-05
9.1318176e-05
9.6445914e-05
9.920326e-05
9.8840334e-05
9.4895532e-05
8.7069183e-05
7.5198605e-05
5.9329532e-05
3.9974972e-05
1.6669891e-05
8.2504313e-05
8.4381431e-05
8.8965645e-05
9.4525124e-05
9.9055439e-05
0.00010126356
0.00010040147
9.6012748e-05
8.7806237e-05
7.5629138e-05
5.953598e-05
4.0043427e-05
1.6681088e-05
8.711497e-05
8.8702709e-05
9.2705328e-05
9.7623195e-05
0.00010155591
0.00010322442
0.00010187873
9.7064179e-05
8.8495847e-05
7.6029199e-05
5.9726232e-05
4.0106098e-05
1.6692087e-05
9.1594914e-05
9.289845e-05
9.6324602e-05
0.00010060168
0.00010394186
0.00010508272
0.00010327013
9.8048538e-05
8.9137183e-05
7.6398256e-05
5.9899955e-05
4.0162806e-05
1.6702851e-05
9.5906962e-05
9.6938394e-05
9.9804905e-05
0.00010345111
0.0001062085
0.00010683568
0.00010457386
9.8964582e-05
8.9729392e-05
7.6735739e-05
6.0056787e-05
4.0213357e-05
1.671334e-05
0.00010002392
0.00010079932
0.00010313095
0.00010616345
0.00010835179
0.00010848105
0.00010578843
9.9811222e-05
9.0271677e-05
7.7041084e-05
6.0196366e-05
4.0257565e-05
1.6723514e-05
0.00010392712
0.00010446441
0.00010629077
0.00010873218
0.00011036859
0.00011001715
0.00010691274
0.00010058763
9.0763385e-05
7.7313804e-05
6.0318364e-05
4.0295257e-05
1.6733331e-05
0.0001076049
0.00010792241
0.00010927558
0.00011115238
0.00011225667
0.00011144299
0.00010794619
0.00010129331
9.120408e-05
7.7553536e-05
6.0422522e-05
4.0326295e-05
1.674275e-05
0.00011105121
0.00011116678
0.00011207963
0.00011342076
0.00011401483
0.00011275832
0.00010888878
0.0001019282
9.1593616e-05
7.7760099e-05
6.0508685e-05
4.0350586e-05
1.6751732e-05
0.00011426437
0.00011419491
0.00011469986
0.00011553561
0.00011564284
0.00011396362
0.00010974107
0.00010249271
9.1932185e-05
7.7933538e-05
6.0576832e-05
4.0368097e-05
1.6760238e-05
0.00011724609
0.0001170073
0.00011713559
0.00011749673
0.00011714145
0.00011506015
0.00011050427
0.00010298774
9.2220359e-05
7.8074158e-05
6.0627094e-05
4.0378864e-05
1.6768237e-05
0.00012000066
0.00011960696
0.00011938821
0.00011930528
0.00011851235
0.00011604985
0.00011118019
0.0001034147
9.2459099e-05
7.8182542e-05
6.0659776e-05
4.0383003e-05
1.6775699e-05
0.00012253424
0.00012199884
0.0001214608
0.00012096367
0.00011975808
0.00011693533
0.00011177118
0.00010377547
9.2649759e-05
7.8259558e-05
6.067536e-05
4.0380706e-05
1.6782601e-05
0.00012485442
0.00012418934
0.00012335786
0.00012247536
0.00012088192
0.00011771981
0.00011228013
0.0001040724
9.2794063e-05
7.8306351e-05
6.0674502e-05
4.0372245e-05
1.6788927e-05
0.00012696977
0.00012618596
0.00012508498
0.00012384473
0.00012188784
0.00011840701
0.00011271036
0.00010430823
9.2894073e-05
7.8324324e-05
6.0658025e-05
4.0357966e-05
1.6794666e-05
0.00012888957
0.00012799701
0.00012664862
0.00012507689
0.00012278035
0.0001190011
0.00011306559
0.00010448603
9.2952149e-05
7.8315112e-05
6.0626899e-05
4.0338281e-05
1.6799815e-05
0.00013062349
0.00012963129
0.0001280559
0.00012617753
0.00012356443
0.0001195066
0.00011334983
0.00010460917
9.2970897e-05
7.8280542e-05
6.0582221e-05
4.0313654e-05
1.6804378e-05
0.0001321815
0.00013109799
0.00012931438
0.00012715282
0.00012424538
0.0001199283
0.00011356732
0.00010468123
9.2953117e-05
7.82226e-05
6.0525186e-05
4.0284593e-05
1.6808364e-05
0.00013357363
0.00013240644
0.00013043194
0.00012800922
0.00012482878
0.00012027118
0.00011372248
0.00010470593
9.2901748e-05
7.8143381e-05
6.0457065e-05
4.0251635e-05
1.6811789e-05
0.0001348099
0.00013356604
0.00013141662
0.00012875341
0.00012532039
0.00012054036
0.00011381982
0.00010468709
9.2819819e-05
7.8045057e-05
6.0379173e-05
4.0215333e-05
1.6814674e-05
0.00013590023
0.00013458612
0.00013227652
0.0001293922
0.00012572605
0.00012074099
0.00011386388
0.00010462858
9.2710395e-05
7.792983e-05
6.0292843e-05
4.0176244e-05
1.6817042e-05
0.00013685433
0.00013547589
0.00013301971
0.00012993241
0.00012605163
0.00012087825
0.0001138592
0.00010453424
9.2576537e-05
7.7799901e-05
6.0199403e-05
4.0134917e-05
1.6818922e-05
0.00013768167
0.00013624436
0.00013365416
0.00013038082
0.00012630295
0.00012095724
0.00011381025
0.00010440786
9.242126e-05
7.7657435e-05
6.0100153e-05
4.0091884e-05
1.6820345e-05
0.00013839143
0.00013690028
0.00013418766
0.00013074412
0.00012648577
0.00012098299
0.00011372141
0.00010425314
9.2247502e-05
7.7504533e-05
5.9996347e-05
4.0047651e-05
1.6821343e-05
0.00013899247
0.00013745212
0.00013462782
0.00013102885
0.00012660571
0.0001209604
0.00011359694
0.00010407365
9.2058092e-05
7.7343211e-05
5.9889177e-05
4.0002693e-05
1.6821951e-05
0.0001394933
0.00013790804
0.00013498196
0.00013124136
0.00012666825
0.0001208942
0.00011344092
0.00010387283
9.185573e-05
7.7175379e-05
5.977976e-05
3.9957445e-05
1.6822201e-05
0.00013990204
0.00013827584
0.00013525717
0.00013138779
0.00012667864
0.00012078896
0.00011325727
0.00010365394
9.164297e-05
7.7002828e-05
5.9669132e-05
3.9912305e-05
1.6822129e-05
0.00014022646
0.00013856298
0.0001354602
0.00013147404
0.00012664198
0.00012064904
0.00011304971
0.00010342005
9.1422207e-05
7.6827222e-05
5.9558241e-05
3.9867629e-05
1.6821769e-05
0.00014047393
0.00013877655
0.00013559753
0.00013150574
0.00012656309
0.00012047859
0.00011282177
0.00010317408
9.1195666e-05
7.6650088e-05
5.944794e-05
3.9823729e-05
1.6821151e-05
0.00014065143
0.00013892329
0.00013567528
0.00013148828
0.00012644659
0.00012028155
0.00011257677
0.00010291871
9.09654e-05
7.6472815e-05
5.9338994e-05
3.9780877e-05
1.6820309e-05
0.00014076556
0.00013900954
0.00013569929
0.00013142674
0.00012629687
0.00012006162
0.0001123178
0.00010265644
9.0733289e-05
7.6296652e-05
5.9232072e-05
3.9739302e-05
1.6819271e-05
0.00014082254
0.00013904132
0.00013567504
0.00013132596
0.00012611803
0.00011982229
0.00011204775
0.00010238958
9.0501036e-05
7.6122714e-05
5.9127757e-05
3.9699194e-05
1.6818066e-05
0.00014082822
0.00013902426
0.00013560772
0.00013119048
0.00012591397
0.00011956683
0.0001117693
0.00010212023
9.027017e-05
7.5951966e-05
5.9026497e-05
3.9660497e-05
1.6816719e-05
0.00014078807
0.00013896366
0.00013550219
0.00013102456
0.00012568832
0.00011929826
0.00011148492
0.00010185029
9.0042047e-05
7.5785232e-05
5.8928647e-05
3.962316e-05
1.6815251e-05
0.00014070722
0.00013886446
0.000135363
0.00013083222
0.00012544448
0.0001190194
0.00011119684
0.00010158148
8.981784e-05
7.5623151e-05
5.8834231e-05
3.9587475e-05
1.6813682e-05
0.00014059046
0.0001387313
0.00013519441
0.00013061718
0.00012518561
0.00011873283
0.00011090714
0.00010131532
8.9598578e-05
7.5466304e-05
5.8743589e-05
3.9553567e-05
1.6812031e-05
0.00014044224
0.00013856848
0.00013500039
0.00013038293
0.00012491464
0.00011844095
0.00011061766
0.00010105315
8.9385051e-05
7.5314818e-05
5.8657155e-05
3.9521529e-05
1.6810319e-05
0.00014026671
0.00013838
0.00013478461
0.00013013269
0.00012463428
0.00011814592
0.00011033004
0.0001007961
8.9177894e-05
7.5169389e-05
5.8575077e-05
3.949141e-05
1.6808564e-05
0.0001400677
0.00013816959
0.0001345505
0.00012986943
0.000124347
0.00011784972
0.00011004576
0.00010054517
8.897765e-05
7.5030478e-05
5.8497482e-05
3.9463245e-05
1.6806784e-05
0.00013984877
0.00013794066
0.0001343012
0.00012959592
0.00012405507
0.00011755409
0.00010976606
0.00010030099
8.8785121e-05
7.4898333e-05
5.8424449e-05
3.9437044e-05
1.6804994e-05
0.00013961318
0.00013769639
0.00013403963
0.00012931467
0.00012376054
0.00011726061
0.00010949196
0.00010006454
8.8600774e-05
7.4773131e-05
5.8356016e-05
3.9412798e-05
1.6803207e-05
0.00013936397
0.00013743968
0.00013376845
0.00012902796
0.00012346527
0.00011697061
0.00010922448
9.9836582e-05
8.8424954e-05
7.4654988e-05
5.829218e-05
3.9390481e-05
1.6801436e-05
0.00013910388
0.00013717321
0.00013349009
0.00012873788
0.00012317086
0.00011668525
0.00010896468
9.9617679e-05
8.8257915e-05
7.4543958e-05
5.8232905e-05
3.937005e-05
1.6799691e-05
0.00013883544
0.00013689939
0.00013320675
0.00012844624
0.0001228787
0.00011640587
0.00010871337
9.9408267e-05
8.8099826e-05
7.4440044e-05
5.8178123e-05
3.9351455e-05
1.679798e-05
0.00013856093
0.0001366204
0.00013292034
0.00012815469
0.00012259035
0.00011613351
0.0001084712
9.920868e-05
8.7950783e-05
7.4343198e-05
5.8127741e-05
3.9334632e-05
1.679631e-05
0.00013828238
0.00013633818
0.00013263269
0.00012786489
0.00012230706
0.00011586907
0.00010823872
9.9019159e-05
8.7810811e-05
7.4253327e-05
5.8081644e-05
3.9319511e-05
1.679469e-05
0.00013800164
0.00013605456
0.00013234551
0.0001275783
0.00012202998
0.00011561332
0.00010801635
9.8839857e-05
8.7679876e-05
7.4170304e-05
5.8039697e-05
3.9306019e-05
1.6793122e-05
0.00013772045
0.00013577122
0.00013206034
0.00012729622
0.00012176006
0.00011536689
0.00010780442
9.8670852e-05
8.755789e-05
7.4093966e-05
5.800175e-05
3.9294076e-05
1.6791612e-05
0.00013744036
0.00013548969
0.00013177857
0.0001270198
0.00012149817
0.0001151303
0.00010760315
9.8512148e-05
8.7444717e-05
7.4024126e-05
5.7967643e-05
3.92836e-05
1.6790164e-05
0.0001371628
0.00013521133
0.00013150142
0.00012675002
0.000121245
0.00011490397
0.00010741271
9.8363691e-05
8.734018e-05
7.396057e-05
5.7937204e-05
3.927451e-05
1.6788779e-05
0.00013688904
0.00013493736
0.00013123
0.00012648778
0.00012100116
0.00011468821
0.00010723315
9.8225369e-05
8.7244064e-05
7.3903068e-05
5.7910257e-05
3.9266721e-05
1.678746e-05
0.00013662023
0.00013466888
0.00013096525
0.0001262338
0.00012076713
0.00011448326
0.00010706448
9.8097019e-05
8.7156127e-05
7.3851374e-05
5.7886619e-05
3.926015e-05
1.6786208e-05
0.00013635737
0.00013440685
0.000130708
0.00012598873
0.00012054331
0.00011428925
0.00010690664
9.7978438e-05
8.7076097e-05
7.380523e-05
5.7866108e-05
3.9254715e-05
1.6785024e-05
0.00013610135
0.00013415208
0.00013045897
0.00012575309
0.00012033
0.00011410626
0.0001067595
9.7869381e-05
8.7003684e-05
7.3764371e-05
5.7848538e-05
3.9250336e-05
1.6783908e-05
0.00013585291
0.0001339053
0.00013021876
0.00012552731
0.0001201274
0.00011393429
0.0001066229
9.7769574e-05
8.693858e-05
7.3728523e-05
5.7833724e-05
3.9246932e-05
1.6782859e-05
0.00013561273
0.00013366712
0.00012998786
0.00012531171
0.00011993565
0.00011377327
0.00010649663
9.7678713e-05
8.6880461e-05
7.3697413e-05
5.7821484e-05
3.9244428e-05
1.6781878e-05
0.00013538134
0.00013343804
0.00012976668
0.00012510654
0.00011975481
0.00011362311
0.00010638043
9.7596473e-05
8.6828997e-05
7.3670762e-05
5.7811638e-05
3.924275e-05
1.6780963e-05
0.00013515919
0.00013321847
0.00012955554
0.00012491198
0.00011958487
0.00011348362
0.00010627403
9.7522509e-05
8.6783848e-05
7.3648296e-05
5.780401e-05
3.9241824e-05
1.6780114e-05
0.00013494666
0.00013300873
0.00012935467
0.00012472812
0.00011942579
0.0001133546
0.0001061771
9.7456462e-05
8.6744673e-05
7.3629741e-05
5.7798428e-05
3.9241583e-05
1.6779328e-05
0.000134744
0.00013280908
0.00012916423
0.00012455499
0.00011927743
0.00011323581
0.0001060893
9.7397961e-05
8.6711126e-05
7.361483e-05
5.7794728e-05
3.9241962e-05
1.6778604e-05
0.00013455143
0.00013261968
0.00012898431
0.00012439257
0.00011913965
0.00011312696
0.00010601029
9.7346628e-05
8.6682866e-05
7.3603297e-05
5.7792747e-05
3.9242898e-05
1.677794e-05
0.00013436908
0.00013244062
0.00012881492
0.00012424076
0.00011901222
0.00011302773
0.00010593968
9.730208e-05
8.665955e-05
7.3594886e-05
5.7792332e-05
3.924433e-05
1.6777335e-05
0.000134197
0.00013227194
0.00012865605
0.00012409943
0.00011889491
0.00011293781
0.0001058771
9.726393e-05
8.6640844e-05
7.3589347e-05
5.7793334e-05
3.9246204e-05
1.6776785e-05
0.00013403521
0.00013211361
0.0001285076
0.00012396841
0.00011878744
0.00011285681
0.00010582213
9.7231793e-05
8.6626416e-05
7.3586436e-05
5.7795611e-05
3.9248466e-05
1.677629e-05
0.00013388364
0.00013196557
0.00012836944
0.00012384748
0.00011868949
0.00011278439
0.0001057744
9.7205286e-05
8.6615943e-05
7.358592e-05
5.7799029e-05
3.9251065e-05
1.6775846e-05
0.0001337422
0.00013182768
0.00012824139
0.00012373637
0.00011860075
0.00011272014
0.00010573347
9.7184029e-05
8.660911e-05
7.3587573e-05
5.7803457e-05
3.9253955e-05
1.6775451e-05
0.00013361074
0.00013169978
0.00012812323
0.00012363482
0.00011852085
0.00011266366
0.00010569896
9.7167649e-05
8.6605611e-05
7.3591179e-05
5.7808775e-05
3.9257091e-05
1.6775103e-05
0.00013348908
0.00013158166
0.00012801471
0.0001235425
0.00011844944
0.00011261456
0.00010567046
9.7155781e-05
8.6605151e-05
7.3596533e-05
5.7814867e-05
3.9260431e-05
1.6774799e-05
0.000133377
0.00013147309
0.00012791556
0.00012345908
0.00011838612
0.00011257243
0.00010564757
9.7148069e-05
8.6607447e-05
7.3603438e-05
5.7821626e-05
3.9263938e-05
1.6774536e-05
0.00013327424
0.0001313738
0.00012782547
0.00012338422
0.0001183305
0.00011253686
0.00010562989
9.7144167e-05
8.6612226e-05
7.361171e-05
5.7828949e-05
3.9267576e-05
1.6774313e-05
0.00013318053
0.00013128349
0.00012774412
0.00012331755
0.0001182822
0.00011250744
0.00010561705
9.7143743e-05
8.661923e-05
7.3621174e-05
5.7836745e-05
3.9271312e-05
1.6774127e-05
0.00013309555
0.00013120184
0.00012767116
0.0001232587
0.00011824081
0.00011248378
0.00010560866
9.7146474e-05
8.662821e-05
7.3631666e-05
5.7844924e-05
3.9275118e-05
1.6773975e-05
0.000133019
0.00013112853
0.00012760623
0.00012320727
0.00011820592
0.00011246546
0.00010560436
9.7152053e-05
8.6638934e-05
7.364303e-05
5.7853405e-05
3.9278965e-05
1.6773856e-05
0.00013295053
0.0001310632
0.00012754897
0.00012316287
0.00011817714
0.00011245211
0.0001056038
9.7160182e-05
8.6651178e-05
7.3655122e-05
5.7862114e-05
3.928283e-05
1.6773766e-05
0.00013288978
0.00013100549
0.00012749898
0.00012312511
0.00011815406
0.00011244333
0.00010560662
9.7170579e-05
8.666473e-05
7.3667807e-05
5.7870981e-05
3.9286688e-05
1.6773704e-05
0.00013283639
0.00013095502
0.0001274559
0.00012309359
0.00011813628
0.00011243875
0.0001056125
9.7182971e-05
8.6679393e-05
7.3680956e-05
5.7879941e-05
3.9290519e-05
1.6773668e-05
0.00013278998
0.00013091142
0.00012741931
0.00012306791
0.00011812341
0.00011243801
0.00010562112
9.7197102e-05
8.6694977e-05
7.3694452e-05
5.7888933e-05
3.9294304e-05
1.6773654e-05
0.00013275017
0.00013087429
0.00012738884
0.00012304768
0.00011811508
0.00011244074
0.00010563218
9.7212726e-05
8.6711307e-05
7.3708184e-05
5.7897905e-05
3.9298026e-05
1.6773662e-05
0.00013271658
0.00013084325
0.00012736409
0.0001230325
0.0001181109
0.00011244662
0.00010564537
9.7229615e-05
8.6728219e-05
7.3722051e-05
5.7906805e-05
3.9301668e-05
1.6773689e-05
0.00013268883
0.00013081792
0.00012734466
0.000123022
0.00011811051
0.00011245531
0.00010566043
9.7247552e-05
8.6745561e-05
7.3735962e-05
5.791559e-05
3.9305217e-05
1.6773733e-05
0.00013266654
0.00013079792
0.00012733019
0.0001230158
0.00011811357
0.0001124665
0.00010567709
9.7266339e-05
8.6763197e-05
7.3749835e-05
5.7924221e-05
3.9308662e-05
1.6773792e-05
0.00013264934
0.00013078287
0.0001273203
0.00012301353
0.00011811973
0.0001124799
0.00010569512
9.7285791e-05
8.6781e-05
7.3763595e-05
5.7932665e-05
3.9311993e-05
1.6773865e-05
0.00013263686
0.0001307724
0.00012731463
0.00012301487
0.00011812868
0.00011249523
0.00010571429
9.7305741e-05
8.6798857e-05
7.3777178e-05
5.7940894e-05
3.9315204e-05
1.6773949e-05
0.00013262874
0.00013076616
0.00012731282
0.00012301946
0.00011814012
0.00011251223
0.00010573438
9.7326033e-05
8.6816666e-05
7.3790528e-05
5.7948884e-05
3.931829e-05
1.6774044e-05
0.00013262462
0.0001307638
0.00012731453
0.00012302698
0.00011815374
0.00011253065
0.0001057552
9.7346522e-05
8.6834334e-05
7.3803592e-05
5.795661e-05
3.9321229e-05
1.6774148e-05
0.00013262418
0.00013076497
0.00012731943
0.00012303713
0.00011816929
0.00011255025
0.00010577658
9.7367078e-05
8.6851775e-05
7.3816323e-05
5.796405e-05
3.9324005e-05
1.6774259e-05
0.00013262706
0.00013076935
0.0001273272
0.0001230496
0.00011818647
0.00011257082
0.00010579832
9.7387575e-05
8.6868909e-05
7.3828674e-05
5.7971168e-05
3.9326629e-05
1.6774376e-05
0.00013263296
0.00013077661
0.00012733753
0.0001230641
0.00011820506
0.00011259214
0.00010582028
9.7407898e-05
8.6885662e-05
7.3840604e-05
5.7977951e-05
3.9329106e-05
1.6774498e-05
0.00013264155
0.00013078644
0.00012735011
0.00012308036
0.00011822479
0.00011261402
0.00010584229
9.7427941e-05
8.6901963e-05
7.3852059e-05
5.7984401e-05
3.9331434e-05
1.6774623e-05
0.00013265253
0.00013079855
0.00012736467
0.00012309812
0.00011824546
0.00011263627
0.00010586423
9.7447607e-05
8.6917753e-05
7.3863019e-05
5.7990512e-05
3.9333615e-05
1.677475e-05
0.00013266562
0.00013081265
0.00012738093
0.00012311714
0.00011826684
0.00011265873
0.00010588597
9.7466808e-05
8.6932962e-05
7.3873478e-05
5.799628e-05
3.9335651e-05
1.6774878e-05
0.00013268055
0.00013082848
0.00012739865
0.00012313718
0.00011828876
0.00011268124
0.00010590739
9.7485463e-05
8.694757e-05
7.388342e-05
5.8001701e-05
3.9337541e-05
1.6775007e-05
0.00013269707
0.00013084579
0.0001274176
0.00012315805
0.00011831103
0.00011270368
0.0001059284
9.7503511e-05
8.6961558e-05
7.3892838e-05
5.8006779e-05
3.9339291e-05
1.6775136e-05
0.00013271495
0.00013086436
0.00012743755
0.00012317955
0.0001183335
0.00011272592
0.00010594891
9.7520927e-05
8.6974909e-05
7.390173e-05
5.8011519e-05
3.9340904e-05
1.6775264e-05
0.00013273395
0.00013088397
0.0001274583
0.0001232015
0.00011835603
0.00011274784
0.00010596886
9.7537679e-05
8.6987614e-05
7.3910102e-05
5.801593e-05
3.9342387e-05
1.677539e-05
0.00013275389
0.00013090441
0.00012747968
0.00012322375
0.00011837848
0.00011276937
0.00010598821
9.7553743e-05
8.699967e-05
7.3917961e-05
5.8020024e-05
3.9343747e-05
1.6775515e-05
0.00013277456
0.0001309255
0.0001275015
0.00012324613
0.00011840073
0.00011279043
0.00010600691
9.7569103e-05
8.7011077e-05
7.3925319e-05
5.8023813e-05
3.934499e-05
1.6775637e-05
0.00013279576
0.00013094705
0.00012752358
0.0001232685
0.00011842269
0.00011281095
0.00010602493
9.7583742e-05
8.7021837e-05
7.3932186e-05
5.8027309e-05
3.9346124e-05
1.6775757e-05
0.00013281732
0.00013096888
0.00012754577
0.00012329074
0.00011844424
0.00011283086
0.00010604221
9.7597642e-05
8.7031949e-05
7.393857e-05
5.8030521e-05
3.9347156e-05
1.6775874e-05
0.00013283907
0.00013099082
0.00012756792
0.00012331272
0.00011846531
0.00011285009
0.00010605874
9.7610786e-05
8.7041411e-05
7.3944478e-05
5.8033457e-05
3.9348088e-05
1.6775988e-05
0.00013286083
0.00013101272
0.00012758989
0.00012333431
0.00011848579
0.00011286859
0.00010607445
9.7623155e-05
8.7050218e-05
7.3949911e-05
5.8036121e-05
3.9348923e-05
1.6776098e-05
0.00013288248
0.00013103445
0.00012761155
0.00012335542
0.00011850561
0.00011288629
0.00010608932
9.7634733e-05
8.7058365e-05
7.3954871e-05
5.8038514e-05
3.9349661e-05
1.6776205e-05
0.00013290387
0.00013105588
0.0001276328
0.00012337596
0.00011852469
0.00011290316
0.00010610333
9.7645511e-05
8.7065852e-05
7.3959362e-05
5.804064e-05
3.9350301e-05
1.6776307e-05
0.00013292493
0.00013107691
0.00012765354
0.00012339585
0.00011854299
0.00011291915
0.00010611647
9.7655489e-05
8.7072686e-05
7.396339e-05
5.8042503e-05
3.9350843e-05
1.6776404e-05
0.00013294555
0.00013109748
0.00012767372
0.00012341505
0.00011856048
0.00011293427
0.00010612874
9.7664684e-05
8.7078886e-05
7.3966974e-05
5.8044114e-05
3.935129e-05
1.6776495e-05
0.0001329657
0.00013111752
0.00012769329
0.00012343352
0.00011857716
0.00011294852
0.00010614015
9.7673124e-05
8.7084482e-05
7.3970135e-05
5.8045487e-05
3.9351648e-05
1.6776581e-05
0.00013298532
0.000131137
0.00012771223
0.00012345127
0.00011859302
0.00011296193
0.00010615077
9.7680853e-05
8.7089515e-05
7.397291e-05
5.8046643e-05
3.9351924e-05
1.6776661e-05
0.00013300439
0.0001311559
0.00012773051
0.00012346828
0.00011860809
0.00011297454
0.00010616062
9.7687924e-05
8.7094034e-05
7.3975336e-05
5.8047609e-05
3.935213e-05
1.6776736e-05
0.00013302289
0.00013117419
0.00012774813
0.00012348457