/*--------------------------------*- C++ -*----------------------------------*\
| =========                 |                                                 |
| \\      /  F ield         | OpenFOAM: The Open Source CFD Toolbox           |
|  \\    /   O peration     | Version:  2506                                  |
|   \\  /    A nd           | Website:  www.openfoam.com                      |
|    \\/     M anipulation  |                                                 |
\*---------------------------------------------------------------------------*/
FoamFile
{
    version     2.0;
    format      ascii;
    arch        "LSB;label=32;scalar=64";
    class       volScalarField;
    location    "5000/water";
    object      T;
}
// * * * * * * * * * * * * * * * * * * * * * * * * * * * * * * * * * * * * * //

dimensions      [0 0 0 1 0 0 0];

internalField   nonuniform List<scalar> 
2600
(
333.15
333.15
333.15
333.15
333.15
333.15
333.15
333.14999
333.14998
333.14991
333.14959
333.14804
333.13783
333.15
333.15
333.15
333.15
333.15
333.15
333.14999
333.14998
333.14992
333.14971
333.14893
333.14549
333.12878
333.15
333.15
333.15
333.15
333.15
333.15
333.14999
333.14995
333.14982
333.14942
333.14806
333.14258
333.12147
333.15
333.15
333.15
333.15
333.15
333.14999
333.14997
333.1499
333.14969
333.14905
333.14703
333.13947
333.11529
333.15
333.15
333.15
333.15
333.14999
333.14998
333.14994
333.14983
333.14951
333.14861
333.14585
333.13626
333.10993
333.15
333.15
333.15
333.15
333.14999
333.14997
333.14991
333.14974
333.1493
333.14809
333.14452
333.13305
333.10525
333.15
333.15
333.15
333.14999
333.14998
333.14995
333.14987
333.14963
333.14904
333.14751
333.14305
333.12987
333.10115
333.15
333.15
333.15
333.14999
333.14998
333.14993
333.14981
333.1495
333.14876
333.14684
333.14143
333.1268
333.0976
333.15
333.15
333.15
333.14999
333.14996
333.1499
333.14974
333.14935
333.14843
333.14608
333.13966
333.12386
333.09456
333.15
333.15
333.14999
333.14998
333.14995
333.14987
333.14966
333.14918
333.14805
333.14521
333.13776
333.1211
333.09199
333.15
333.15
333.14999
333.14997
333.14993
333.14983
333.14957
333.14898
333.14762
333.14422
333.13574
333.11855
333.08985
333.15
333.14999
333.14999
333.14996
333.14991
333.14978
333.14946
333.14876
333.14713
333.1431
333.13366
333.11622
333.08808
333.14999
333.14999
333.14998
333.14995
333.14988
333.14972
333.14934
333.1485
333.14655
333.14185
333.13156
333.11413
333.08662
333.14999
333.14999
333.14998
333.14994
333.14985
333.14965
333.1492
333.1482
333.14589
333.14046
333.1295
333.11225
333.08542
333.14999
333.14999
333.14997
333.14992
333.14982
333.14957
333.14904
333.14786
333.14513
333.13898
333.12753
333.11057
333.08442
333.14999
333.14998
333.14996
333.1499
333.14977
333.14949
333.14885
333.14746
333.14427
333.13742
333.12567
333.10906
333.08358
333.14999
333.14998
333.14995
333.14988
333.14973
333.14938
333.14864
333.147
333.14329
333.13583
333.12393
333.10772
333.08288
333.14998
333.14997
333.14994
333.14985
333.14967
333.14927
333.14839
333.14646
333.14222
333.13424
333.12232
333.10651
333.08228
333.14998
333.14996
333.14992
333.14982
333.1496
333.14913
333.14811
333.14585
333.14106
333.13268
333.12084
333.10543
333.08177
333.14997
333.14995
333.1499
333.14979
333.14953
333.14897
333.14777
333.14515
333.13985
333.13118
333.11948
333.10444
333.08132
333.14996
333.14994
333.14988
333.14974
333.14944
333.14879
333.14739
333.14436
333.13859
333.12974
333.11822
333.10355
333.08093
333.14995
333.14993
333.14986
333.1497
333.14934
333.14858
333.14694
333.1435
333.13732
333.12838
333.11706
333.10274
333.0806
333.14994
333.14991
333.14983
333.14964
333.14923
333.14834
333.14643
333.14257
333.13605
333.12709
333.11598
333.10199
333.0803
333.14993
333.1499
333.1498
333.14958
333.14909
333.14806
333.14585
333.14158
333.13481
333.12588
333.11499
333.10131
333.08003
333.14992
333.14988
333.14976
333.1495
333.14894
333.14773
333.1452
333.14056
333.1336
333.12474
333.11407
333.10068
333.0798
333.1499
333.14985
333.14972
333.14941
333.14875
333.14735
333.14449
333.13951
333.13243
333.12366
333.11321
333.1001
333.07959
333.14988
333.14983
333.14967
333.14931
333.14854
333.14692
333.14372
333.13845
333.1313
333.12265
333.11241
333.09956
333.07941
333.14986
333.1498
333.14961
333.14919
333.1483
333.14643
333.1429
333.13739
333.13022
333.12169
333.11166
333.09906
333.07924
333.14984
333.14976
333.14954
333.14905
333.14801
333.14588
333.14203
333.13635
333.12919
333.12079
333.11095
333.09859
333.0791
333.14981
333.14972
333.14946
333.14889
333.14768
333.14527
333.14114
333.13533
333.1282
333.11994
333.11029
333.09816
333.07897
333.14977
333.14966
333.14937
333.1487
333.14731
333.14461
333.14023
333.13433
333.12726
333.11914
333.10967
333.09775
333.07885
333.14973
333.14961
333.14926
333.14849
333.14688
333.14391
333.13932
333.13336
333.12636
333.11837
333.10908
333.09737
333.07875
333.14968
333.14954
333.14913
333.14823
333.14641
333.14316
333.1384
333.13242
333.1255
333.11765
333.10852
333.09701
333.07866
333.14963
333.14946
333.14898
333.14794
333.14588
333.14239
333.13749
333.13151
333.12467
333.11696
333.10799
333.09667
333.07858
333.14956
333.14936
333.1488
333.1476
333.1453
333.14159
333.13659
333.13063
333.12388
333.1163
333.10749
333.09634
333.07851
333.14948
333.14925
333.1486
333.14722
333.14468
333.14077
333.13571
333.12978
333.12313
333.11567
333.10702
333.09604
333.07844
333.14939
333.14911
333.14836
333.14679
333.14402
333.13995
333.13484
333.12896
333.1224
333.11507
333.10656
333.09575
333.07838
333.14928
333.14896
333.14808
333.14631
333.14332
333.13912
333.134
333.12817
333.12171
333.1145
333.10613
333.09548
333.07832
333.14915
333.14877
333.14776
333.14579
333.1426
333.1383
333.13317
333.1274
333.12104
333.11395
333.10571
333.09521
333.07827
333.14899
333.14855
333.1474
333.14522
333.14186
333.13748
333.13236
333.12666
333.1204
333.11342
333.10531
333.09496
333.07822
333.14881
333.1483
333.14698
333.14461
333.1411
333.13667
333.13158
333.12594
333.11978
333.11292
333.10493
333.09472
333.07818
333.14859
333.148
333.14652
333.14396
333.14033
333.13587
333.13081
333.12525
333.11918
333.11243
333.10456
333.09449
333.07814
333.14833
333.14765
333.14601
333.14328
333.13956
333.13508
333.13006
333.12458
333.1186
333.11196
333.10421
333.09426
333.07809
333.14802
333.14726
333.14546
333.14258
333.13878
333.13431
333.12933
333.12393
333.11805
333.11151
333.10386
333.09405
333.07805
333.14766
333.14681
333.14485
333.14185
333.138
333.13354
333.12862
333.1233
333.11751
333.11107
333.10353
333.09384
333.07801
333.14723
333.1463
333.14421
333.14111
333.13723
333.13279
333.12793
333.12269
333.11699
333.11064
333.10321
333.09363
333.07797
333.14675
333.14573
333.14353
333.14035
333.13646
333.13206
333.12726
333.12209
333.11648
333.11023
333.1029
333.09343
333.07793
333.14619
333.14511
333.14282
333.13959
333.1357
333.13134
333.1266
333.12151
333.11599
333.10983
333.10259
333.09324
333.07789
333.14557
333.14443
333.14207
333.13881
333.13494
333.13063
333.12596
333.12095
333.11551
333.10944
333.1023
333.09305
333.07784
333.14488
333.14371
333.1413
333.13804
333.13419
333.12993
333.12533
333.1204
333.11504
333.10905
333.102
333.09286
333.0778
333.14413
333.14293
333.14051
333.13725
333.13344
333.12925
333.12472
333.11986
333.11458
333.10868
333.10172
333.09267
333.07775
333.14332
333.14212
333.1397
333.13647
333.13271
333.12857
333.12412
333.11934
333.11414
333.10832
333.10144
333.09249
333.0777
333.14247
333.14127
333.13887
333.13568
333.13198
333.12791
333.12353
333.11882
333.1137
333.10796
333.10116
333.0923
333.07764
333.14157
333.14039
333.13803
333.13489
333.13125
333.12726
333.12295
333.11832
333.11327
333.10761
333.10089
333.09212
333.07758
333.14064
333.13948
333.13717
333.13411
333.13054
333.12661
333.12238
333.11782
333.11285
333.10726
333.10062
333.09194
333.07752
333.13969
333.13856
333.13632
333.13332
333.12983
333.12597
333.12182
333.11734
333.11244
333.10692
333.10036
333.09176
333.07746
333.13872
333.13763
333.13545
333.13253
333.12912
333.12535
333.12126
333.11685
333.11203
333.10658
333.10009
333.09157
333.07739
333.13774
333.1367
333.13459
333.13175
333.12842
333.12472
333.12072
333.11638
333.11162
333.10624
333.09983
333.09139
333.07731
333.13676
333.13576
333.13372
333.13097
333.12772
333.12411
333.12018
333.11591
333.11122
333.10591
333.09957
333.0912
333.07723
333.13579
333.13482
333.13286
333.1302
333.12703
333.1235
333.11964
333.11545
333.11083
333.10558
333.0993
333.09101
333.07714
333.13482
333.13389
333.13201
333.12943
333.12635
333.12289
333.11911
333.11498
333.11043
333.10525
333.09904
333.09082
333.07705
333.13386
333.13297
333.13116
333.12866
333.12567
333.12229
333.11858
333.11453
333.11004
333.10492
333.09878
333.09063
333.07695
333.13291
333.13206
333.13032
333.1279
333.12499
333.12169
333.11806
333.11407
333.10965
333.1046
333.09851
333.09043
333.07684
333.13198
333.13117
333.12949
333.12715
333.12432
333.1211
333.11754
333.11362
333.10926
333.10427
333.09824
333.09023
333.07673
333.13106
333.13028
333.12867
333.12641
333.12366
333.12052
333.11703
333.11317
333.10887
333.10394
333.09797
333.09002
333.07661
333.13017
333.12942
333.12786
333.12568
333.12301
333.11994
333.11651
333.11272
333.10849
333.10361
333.0977
333.08981
333.07648
333.12929
333.12857
333.12707
333.12496
333.12236
333.11936
333.11601
333.11228
333.1081
333.10328
333.09742
333.08959
333.07634
333.12842
333.12773
333.12629
333.12425
333.12172
333.11879
333.1155
333.11183
333.10771
333.10294
333.09714
333.08937
333.07619
333.12758
333.12692
333.12553
333.12355
333.12109
333.11823
333.115
333.11139
333.10732
333.10261
333.09686
333.08914
333.07604
333.12676
333.12612
333.12477
333.12286
333.12046
333.11767
333.1145
333.11095
333.10694
333.10227
333.09657
333.08891
333.07587
333.12595
333.12534
333.12404
333.12218
333.11984
333.11711
333.114
333.11051
333.10655
333.10193
333.09628
333.08867
333.0757
333.12517
333.12457
333.12331
333.12151
333.11924
333.11656
333.11351
333.11007
333.10616
333.10159
333.09599
333.08842
333.07552
333.1244
333.12382
333.12261
333.12085
333.11863
333.11602
333.11302
333.10963
333.10577
333.10125
333.09569
333.08817
333.07533
333.12365
333.12309
333.12191
333.1202
333.11804
333.11548
333.11254
333.1092
333.10538
333.1009
333.09538
333.08791
333.07513
333.12292
333.12238
333.12123
333.11957
333.11746
333.11494
333.11205
333.10876
333.10499
333.10055
333.09508
333.08765
333.07492
333.1222
333.12168
333.12056
333.11894
333.11688
333.11442
333.11157
333.10833
333.10459
333.1002
333.09476
333.08738
333.07471
333.1215
333.12099
333.11991
333.11833
333.11631
333.11389
333.1111
333.10789
333.1042
333.09985
333.09445
333.0871
333.07448
333.12082
333.12032
333.11927
333.11772
333.11575
333.11338
333.11062
333.10746
333.10381
333.09949
333.09413
333.08682
333.07425
333.12015
333.11967
333.11864
333.11713
333.11519
333.11286
333.11015
333.10703
333.10341
333.09913
333.0938
333.08653
333.07401
333.1195
333.11902
333.11802
333.11654
333.11465
333.11236
333.10968
333.1066
333.10302
333.09877
333.09347
333.08624
333.07376
333.11885
333.11839
333.11741
333.11597
333.11411
333.11185
333.10922
333.10617
333.10262
333.0984
333.09314
333.08594
333.07351
333.11823
333.11778
333.11682
333.1154
333.11357
333.11136
333.10875
333.10574
333.10222
333.09804
333.09281
333.08563
333.07325
333.11761
333.11717
333.11623
333.11485
333.11305
333.11086
333.1083
333.10531
333.10183
333.09767
333.09247
333.08532
333.07298
333.11701
333.11658
333.11566
333.1143
333.11253
333.11038
333.10784
333.10488
333.10143
333.0973
333.09212
333.08501
333.0727
333.11642
333.116
333.11509
333.11375
333.11202
333.10989
333.10738
333.10446
333.10103
333.09693
333.09178
333.08469
333.07242
333.11584
333.11542
333.11454
333.11322
333.11151
333.10941
333.10693
333.10403
333.10063
333.09655
333.09143
333.08437
333.07213
333.11527
333.11486
333.11399
333.1127
333.11101
333.10894
333.10648
333.10361
333.10023
333.09618
333.09107
333.08404
333.07184
333.11471
333.11431
333.11345
333.11218
333.11051
333.10847
333.10604
333.10319
333.09983
333.0958
333.09072
333.08371
333.07154
333.11416
333.11376
333.11292
333.11166
333.11002
333.108
333.10559
333.10276
333.09943
333.09542
333.09036
333.08338
333.07124
333.11362
333.11323
333.1124
333.11116
333.10953
333.10753
333.10515
333.10234
333.09903
333.09504
333.09
333.08304
333.07093
333.11308
333.1127
333.11188
333.11066
333.10905
333.10707
333.10471
333.10192
333.09863
333.09466
333.08964
333.0827
333.07062
333.11256
333.11218
333.11137
333.11016
333.10857
333.10661
333.10427
333.1015
333.09823
333.09427
333.08927
333.08235
333.0703
333.11204
333.11167
333.11087
333.10967
333.1081
333.10616
333.10383
333.10108
333.09783
333.09389
333.08891
333.082
333.06998
333.11153
333.11116
333.11037
333.10919
333.10763
333.10571
333.1034
333.10066
333.09742
333.0935
333.08854
333.08165
333.06966
333.11103
333.11066
333.10988
333.10871
333.10717
333.10526
333.10296
333.10025
333.09702
333.09312
333.08817
333.0813
333.06933
333.11053
333.11017
333.10939
333.10824
333.10671
333.10481
333.10253
333.09983
333.09662
333.09273
333.08779
333.08095
333.06899
333.11004
333.10968
333.10891
333.10777
333.10625
333.10437
333.1021
333.09941
333.09622
333.09234
333.08742
333.08059
333.06866
333.10955
333.1092
333.10844
333.1073
333.1058
333.10392
333.10167
333.099
333.09581
333.09195
333.08704
333.08023
333.06832
333.10907
333.10872
333.10797
333.10684
333.10534
333.10348
333.10124
333.09858
333.09541
333.09156
333.08667
333.07987
333.06798
333.10859
333.10825
333.1075
333.10638
333.1049
333.10305
333.10082
333.09817
333.09501
333.09117
333.08629
333.0795
333.06763
333.10812
333.10778
333.10704
333.10593
333.10445
333.10261
333.10039
333.09775
333.0946
333.09078
333.08591
333.07914
333.06729
333.10766
333.10732
333.10658
333.10547
333.10401
333.10218
333.09997
333.09734
333.0942
333.09038
333.08553
333.07877
333.06694
333.10719
333.10686
333.10612
333.10502
333.10357
333.10174
333.09954
333.09692
333.0938
333.08999
333.08515
333.0784
333.06658
333.10674
333.1064
333.10567
333.10458
333.10313
333.10131
333.09912
333.09651
333.09339
333.0896
333.08476
333.07803
333.06623
333.10628
333.10595
333.10522
333.10413
333.10269
333.10088
333.0987
333.0961
333.09299
333.0892
333.08438
333.07766
333.06587
333.10583
333.1055
333.10478
333.10369
333.10226
333.10046
333.09828
333.09569
333.09259
333.08881
333.084
333.07729
333.06551
333.10538
333.10505
333.10433
333.10326
333.10182
333.10003
333.09786
333.09528
333.09218
333.08842
333.08361
333.07691
333.06515
333.10493
333.10461
333.10389
333.10282
333.10139
333.09961
333.09745
333.09487
333.09178
333.08802
333.08323
333.07654
333.06479
333.10449
333.10416
333.10345
333.10238
333.10096
333.09918
333.09703
333.09446
333.09138
333.08763
333.08284
333.07616
333.06443
333.10405
333.10372
333.10302
333.10195
333.10054
333.09876
333.09661
333.09405
333.09098
333.08723
333.08245
333.07578
333.06406
333.10361
333.10329
333.10258
333.10152
333.10011
333.09834
333.0962
333.09364
333.09057
333.08683
333.08206
333.0754
333.06369
333.10318
333.10285
333.10215
333.10109
333.09968
333.09792
333.09578
333.09323
333.09017
333.08644
333.08167
333.07502
333.06332
333.10274
333.10242
333.10172
333.10067
333.09926
333.0975
333.09537
333.09282
333.08977
333.08604
333.08129
333.07464
333.06295
333.10231
333.10199
333.10129
333.10024
333.09884
333.09708
333.09495
333.09241
333.08936
333.08565
333.0809
333.07426
333.06258
333.10188
333.10156
333.10086
333.09981
333.09842
333.09666
333.09454
333.092
333.08896
333.08525
333.08051
333.07388
333.06221
333.10145
333.10113
333.10044
333.09939
333.098
333.09625
333.09413
333.09159
333.08856
333.08485
333.08012
333.07349
333.06183
333.10103
333.10071
333.10001
333.09897
333.09758
333.09583
333.09372
333.09119
333.08816
333.08446
333.07972
333.07311
333.06145
333.1006
333.10028
333.09959
333.09855
333.09716
333.09542
333.0933
333.09078
333.08775
333.08406
333.07933
333.07272
333.06108
333.10018
333.09986
333.09917
333.09813
333.09674
333.095
333.09289
333.09037
333.08735
333.08366
333.07894
333.07234
333.0607
333.09976
333.09944
333.09875
333.09771
333.09632
333.09459
333.09248
333.08996
333.08695
333.08326
333.07855
333.07195
333.06031
333.09933
333.09902
333.09833
333.09729
333.09591
333.09417
333.09207
333.08956
333.08655
333.08287
333.07816
333.07156
333.05993
333.09891
333.0986
333.09791
333.09687
333.09549
333.09376
333.09166
333.08915
333.08614
333.08247
333.07776
333.07118
333.05955
333.09849
333.09818
333.09749
333.09646
333.09508
333.09335
333.09125
333.08875
333.08574
333.08207
333.07737
333.07079
333.05916
333.09807
333.09776
333.09707
333.09604
333.09466
333.09294
333.09084
333.08834
333.08534
333.08167
333.07698
333.0704
333.05878
333.09766
333.09734
333.09666
333.09562
333.09425
333.09253
333.09044
333.08794
333.08494
333.08127
333.07658
333.07001
333.05839
333.09724
333.09692
333.09624
333.09521
333.09384
333.09212
333.09003
333.08753
333.08454
333.08087
333.07619
333.06962
333.058
333.09682
333.09651
333.09582
333.0948
333.09342
333.0917
333.08962
333.08712
333.08413
333.08048
333.07579
333.06922
333.05761
333.09641
333.09609
333.09541
333.09438
333.09301
333.09129
333.08921
333.08672
333.08373
333.08008
333.0754
333.06883
333.05722
333.09599
333.09568
333.095
333.09397
333.0926
333.09088
333.0888
333.08631
333.08333
333.07968
333.075
333.06844
333.05683
333.09558
333.09526
333.09458
333.09356
333.09219
333.09048
333.0884
333.08591
333.08293
333.07928
333.0746
333.06804
333.05644
333.09516
333.09485
333.09417
333.09314
333.09178
333.09007
333.08799
333.0855
333.08253
333.07888
333.07421
333.06765
333.05604
333.09475
333.09444
333.09376
333.09273
333.09137
333.08966
333.08758
333.0851
333.08212
333.07848
333.07381
333.06725
333.05565
333.09434
333.09402
333.09334
333.09232
333.09096
333.08925
333.08718
333.0847
333.08172
333.07808
333.07341
333.06686
333.05525
333.09392
333.09361
333.09293
333.09191
333.09055
333.08884
333.08677
333.08429
333.08132
333.07768
333.07301
333.06646
333.05485
333.09351
333.0932
333.09252
333.0915
333.09014
333.08843
333.08636
333.08389
333.08092
333.07728
333.07262
333.06606
333.05445
333.0931
333.09279
333.09211
333.09109
333.08973
333.08802
333.08596
333.08348
333.08051
333.07688
333.07222
333.06566
333.05405
333.09269
333.09237
333.0917
333.09068
333.08932
333.08762
333.08555
333.08308
333.08011
333.07648
333.07182
333.06526
333.05365
333.09228
333.09196
333.09129
333.09027
333.08891
333.08721
333.08514
333.08267
333.07971
333.07608
333.07142
333.06486
333.05324
333.09186
333.09155
333.09088
333.08986
333.0885
333.0868
333.08474
333.08227
333.07931
333.07567
333.07102
333.06446
333.05284
333.09145
333.09114
333.09047
333.08945
333.08809
333.08639
333.08433
333.08186
333.0789
333.07527
333.07061
333.06406
333.05243
333.09104
333.09073
333.09006
333.08904
333.08768
333.08599
333.08392
333.08146
333.0785
333.07487
333.07021
333.06366
333.05202
333.09063
333.09032
333.08965
333.08863
333.08728
333.08558
333.08352
333.08105
333.07809
333.07447
333.06981
333.06325
333.05161
333.09022
333.08991
333.08924
333.08822
333.08687
333.08517
333.08311
333.08065
333.07769
333.07406
333.06941
333.06285
333.0512
333.08981
333.0895
333.08883
333.08781
333.08646
333.08476
333.08271
333.08024
333.07729
333.07366
333.069
333.06244
333.05078
333.0894
333.08909
333.08842
333.0874
333.08605
333.08436
333.0823
333.07984
333.07688
333.07326
333.0686
333.06203
333.05037
333.08899
333.08868
333.08801
333.087
333.08564
333.08395
333.08189
333.07943
333.07648
333.07285
333.06819
333.06162
333.04995
333.08858
333.08827
333.0876
333.08659
333.08524
333.08354
333.08149
333.07903
333.07607
333.07245
333.06778
333.06122
333.04953
333.08817
333.08786
333.08719
333.08618
333.08483
333.08314
333.08108
333.07862
333.07567
333.07204
333.06738
333.0608
333.04911
333.08776
333.08745
333.08678
333.08577
333.08442
333.08273
333.08067
333.07822
333.07526
333.07163
333.06697
333.06039
333.04869
333.08735
333.08704
333.08637
333.08536
333.08401
333.08232
333.08027
333.07781
333.07485
333.07123
333.06656
333.05998
333.04827
333.08695
333.08664
333.08596
333.08495
333.0836
333.08191
333.07986
333.0774
333.07445
333.07082
333.06615
333.05956
333.04784
333.08654
333.08623
333.08556
333.08454
333.0832
333.08151
333.07945
333.077
333.07404
333.07041
333.06574
333.05915
333.04741
333.08613
333.08582
333.08515
333.08414
333.08279
333.0811
333.07905
333.07659
333.07363
333.07
333.06533
333.05873
333.04698
333.08572
333.08541
333.08474
333.08373
333.08238
333.08069
333.07864
333.07618
333.07322
333.06959
333.06492
333.05831
333.04655
333.08531
333.085
333.08433
333.08332
333.08197
333.08028
333.07823
333.07577
333.07282
333.06918
333.0645
333.05789
333.04611
333.0849
333.08459
333.08392
333.08291
333.08156
333.07988
333.07782
333.07536
333.07241
333.06877
333.06409
333.05747
333.04568
333.08449
333.08418
333.08351
333.0825
333.08116
333.07947
333.07742
333.07496
333.072
333.06836
333.06367
333.05705
333.04524
333.08408
333.08377
333.0831
333.08209
333.08075
333.07906
333.07701
333.07455
333.07159
333.06794
333.06325
333.05662
333.0448
333.08367
333.08337
333.0827
333.08169
333.08034
333.07865
333.0766
333.07414
333.07117
333.06753
333.06284
333.0562
333.04435
333.08327
333.08296
333.08229
333.08128
333.07993
333.07824
333.07619
333.07373
333.07076
333.06712
333.06242
333.05577
333.0439
333.08286
333.08255
333.08188
333.08087
333.07952
333.07783
333.07578
333.07332
333.07035
333.0667
333.062
333.05534
333.04346
333.08245
333.08214
333.08147
333.08046
333.07911
333.07742
333.07537
333.0729
333.06994
333.06628
333.06157
333.05491
333.043
333.08204
333.08173
333.08106
333.08005
333.0787
333.07701
333.07496
333.07249
333.06952
333.06587
333.06115
333.05448
333.04255
333.08163
333.08132
333.08065
333.07964
333.07829
333.0766
333.07455
333.07208
333.06911
333.06545
333.06073
333.05404
333.04209
333.08122
333.08091
333.08024
333.07923
333.07788
333.07619
333.07413
333.07167
333.06869
333.06503
333.0603
333.05361
333.04163
333.08081
333.0805
333.07983
333.07882
333.07747
333.07578
333.07372
333.07125
333.06827
333.06461
333.05987
333.05317
333.04117
333.0804
333.08009
333.07942
333.07841
333.07706
333.07537
333.07331
333.07084
333.06786
333.06419
333.05944
333.05273
333.0407
333.07999
333.07968
333.07901
333.078
333.07665
333.07496
333.0729
333.07042
333.06744
333.06376
333.05901
333.05228
333.04023
333.07958
333.07927
333.0786
333.07759
333.07624
333.07455
333.07248
333.07001
333.06702
333.06334
333.05858
333.05184
333.03976
333.07917
333.07886
333.07819
333.07718
333.07583
333.07413
333.07207
333.06959
333.0666
333.06291
333.05815
333.05139
333.03928
333.07876
333.07845
333.07778
333.07677
333.07542
333.07372
333.07165
333.06917
333.06618
333.06248
333.05771
333.05094
333.0388
333.07835
333.07804
333.07737
333.07636
333.075
333.07331
333.07124
333.06875
333.06575
333.06206
333.05727
333.05049
333.03831
333.07794
333.07763
333.07696
333.07594
333.07459
333.07289
333.07082
333.06833
333.06533
333.06162
333.05683
333.05003
333.03783
333.07753
333.07722
333.07655
333.07553
333.07418
333.07248
333.0704
333.06791
333.0649
333.06119
333.05639
333.04957
333.03733
333.07712
333.07681
333.07613
333.07512
333.07376
333.07206
333.06998
333.06749
333.06448
333.06076
333.05595
333.04911
333.03684
333.07671
333.0764
333.07572
333.07471
333.07335
333.07164
333.06957
333.06707
333.06405
333.06032
333.0555
333.04865
333.03633
333.07629
333.07598
333.07531
333.07429
333.07293
333.07123
333.06915
333.06664
333.06362
333.05989
333.05505
333.04818
333.03583
333.07588
333.07557
333.0749
333.07388
333.07252
333.07081
333.06872
333.06622
333.06319
333.05945
333.0546
333.04771
333.03532
333.07547
333.07516
333.07448
333.07346
333.0721
333.07039
333.0683
333.06579
333.06276
333.05901
333.05415
333.04724
333.0348
333.07505
333.07474
333.07407
333.07305
333.07168
333.06997
333.06788
333.06536
333.06232
333.05857
333.0537
333.04676
333.03428
333.07464
333.07433
333.07365
333.07263
333.07127
333.06955
333.06746
333.06494
333.06189
333.05812
333.05324
333.04628
333.03376
333.07423
333.07391
333.07324
333.07221
333.07085
333.06913
333.06703
333.06451
333.06145
333.05768
333.05278
333.0458
333.03322
333.07381
333.0735
333.07282
333.0718
333.07043
333.0687
333.0666
333.06407
333.06101
333.05723
333.05231
333.04531
333.03269
333.0734
333.07308
333.0724
333.07138
333.07001
333.06828
333.06618
333.06364
333.06057
333.05678
333.05185
333.04482
333.03214
333.07298
333.07267
333.07199
333.07096
333.06959
333.06786
333.06575
333.06321
333.06013
333.05632
333.05138
333.04433
333.03159
333.07256
333.07225
333.07157
333.07054
333.06916
333.06743
333.06532
333.06277
333.05969
333.05587
333.05091
333.04383
333.03103
333.07215
333.07183
333.07115
333.07012
333.06874
333.067
333.06489
333.06233
333.05924
333.05541
333.05043
333.04332
333.03046
333.07173
333.07141
333.07073
333.0697
333.06831
333.06658
333.06445
333.06189
333.05879
333.05495
333.04995
333.04281
333.02989
333.07131
333.07099
333.07031
333.06927
333.06789
333.06615
333.06402
333.06145
333.05834
333.05448
333.04947
333.0423
333.02931
333.07089
333.07057
333.06989
333.06885
333.06746
333.06572
333.06358
333.06101
333.05789
333.05402
333.04898
333.04177
333.02872
333.07047
333.07015
333.06946
333.06842
333.06703
333.06528
333.06314
333.06056
333.05743
333.05355
333.04849
333.04125
333.02811
333.07005
333.06973
333.06904
333.068
333.06661
333.06485
333.0627
333.06011
333.05697
333.05307
333.04799
333.04071
333.0275
333.06962
333.06931
333.06862
333.06757
333.06618
333.06441
333.06226
333.05966
333.05651
333.0526
333.04749
333.04017
333.02687
333.0692
333.06888
333.06819
333.06714
333.06574
333.06398
333.06182
333.05921
333.05605
333.05212
333.04699
333.03963
333.02623
333.06878
333.06846
333.06776
333.06671
333.06531
333.06354
333.06137
333.05876
333.05558
333.05163
333.04647
333.03907
333.02557
333.06835
333.06803
333.06733
333.06628
333.06488
333.0631
333.06093
333.0583
333.05511
333.05114
333.04596
333.0385
333.0249
333.06792
333.0676
333.06691
333.06585
333.06444
333.06266
333.06048
333.05784
333.05464
333.05065
333.04543
333.03792
333.0242
333.0675
333.06717
333.06648
333.06542
333.064
333.06221
333.06002
333.05738
333.05416
333.05015
333.0449
333.03733
333.02346
333.06707
333.06675
333.06604
333.06498
333.06356
333.06177
333.05957
333.05691
333.05367
333.04964
333.04435
333.03672
333.02268
333.06664
333.06632
333.06561
333.06455
333.06312
333.06132
333.05911
333.05644
333.05319
333.04913
333.0438
333.03608
333.0218
)
;

boundaryField
{
    water_inlet
    {
        type            fixedValue;
        value           uniform 333.15;
    }
    water_outlet
    {
        type            zeroGradient;
    }
    water_wedge1
    {
        type            wedge;
    }
    water_wedge2
    {
        type            wedge;
    }
    water_to_rock
    {
        type            compressible::turbulentTemperatureRadCoupledMixed;
        refValue        nonuniform List<scalar> 
200
(
315.49539
319.11082
320.91529
322.01045
322.76884
323.3402
323.79516
324.17163
324.49204
324.77062
325.01693
325.23762
325.43745
325.61999
325.78792
325.94336
326.08795
326.22306
326.34979
326.46904
326.5816
326.6881
326.7891
326.88507
326.97641
327.06349
327.14661
327.22605
327.30206
327.37483
327.44458
327.51147
327.57567
327.63731
327.69653
327.75344
327.80816
327.86079
327.91142
327.96014
328.00704
328.05218
328.09566
328.13752
328.17784
328.21667
328.25408
328.29011
328.32483
328.35828
328.3905
328.42154
328.45145
328.48026
328.50802
328.53475
328.56051
328.58531
328.6092
328.63221
328.65436
328.67569
328.69622
328.71599
328.73501
328.75331
328.77092
328.78786
328.80415
328.81981
328.83487
328.84934
328.86325
328.87661
328.88945
328.90177
328.9136
328.92495
328.93584
328.94628
328.9563
328.96589
328.97508
328.98388
328.99231
329.00036
329.00806
329.01542
329.02245
329.02915
329.03554
329.04163
329.04742
329.05293
329.05816
329.06313
329.06783
329.07228
329.07647
329.08043
329.08416
329.08765
329.09092
329.09397
329.09681
329.09944
329.10187
329.1041
329.10613
329.10796
329.10961
329.11108
329.11235
329.11345
329.11437
329.11512
329.11568
329.11608
329.1163
329.11635
329.11624
329.11595
329.1155
329.11487
329.11408
329.11312
329.11199
329.11069
329.10922
329.10758
329.10576
329.10377
329.1016
329.09925
329.09672
329.094
329.0911
329.08801
329.08473
329.08124
329.07756
329.07367
329.06957
329.06526
329.06073
329.05597
329.05098
329.04576
329.04029
329.03457
329.0286
329.02236
329.01586
329.00907
329.00199
328.99462
328.98694
328.97894
328.97061
328.96195
328.95294
328.94356
328.93381
328.92368
328.91314
328.90218
328.89078
328.87894
328.86663
328.85383
328.84052
328.82667
328.81228
328.7973
328.78172
328.76549
328.7486
328.731
328.71265
328.69351
328.67353
328.65265
328.63081
328.60795
328.58397
328.55877
328.53225
328.50427
328.47465
328.4432
328.40963
328.37363
328.33471
328.29225
328.2453
328.1924
328.131
328.05612
327.9562
327.79888
)
;
        refGradient     uniform 0;
        valueFraction   nonuniform List<scalar> 
200
(
0.021313587
0.018349032
0.017286587
0.016999676
0.017072311
0.017312679
0.017619574
0.017934173
0.018220835
0.018459614
0.01864309
0.018773723
0.018860286
0.018913928
0.018945118
0.018962099
0.018970608
0.018974281
0.018975235
0.018974594
0.018972889
0.01897032
0.018966927
0.018962686
0.018957559
0.018951519
0.01894456
0.018936694
0.018927949
0.018918366
0.018907994
0.018896903
0.018885173
0.018872882
0.018860098
0.018846868
0.018833224
0.018819204
0.018804843
0.01879018
0.018775253
0.018760098
0.018744752
0.018729251
0.018713631
0.018697926
0.018682171
0.018666398
0.018650643
0.018634938
0.018619319
0.018603823
0.018588486
0.018573349
0.018558455
0.018543848
0.018529578
0.018515694
0.018502248
0.018489294
0.018476882
0.018465064
0.018453885
0.018443386
0.018433604
0.018424565
0.01841629
0.018408788
0.018402063
0.018396108
0.018390909
0.018386444
0.018382686
0.018379602
0.018377154
0.018375302
0.018374003
0.018373212
0.018372886
0.018372979
0.018373449
0.018374252