/*--------------------------------*- C++ -*----------------------------------*\
| =========                 |                                                 |
| \\      /  F ield         | OpenFOAM: The Open Source CFD Toolbox           |
|  \\    /   O peration     | Version:  2506                                  |
|   \\  /    A nd           | Website:  www.openfoam.com                      |
|    \\/     M anipulation  |                                                 |
\*---------------------------------------------------------------------------*/
FoamFile
{
    version     2.0;
    format      ascii;
    arch        "LSB;label=32;scalar=64";
    class       volVectorField;
    location    "5000/water";
    object      U;
}
// * * * * * * * * * * * * * * * * * * * * * * * * * * * * * * * * * * * * * //

dimensions      [0 1 -1 0 0 0 0];

internalField   nonuniform List<vector> 
2600
(
(0.2509291 -6.6886033e-05 -1.1979243e-18)
(0.25093316 -0.00014739222 -2.8930562e-18)
(0.25094167 -0.00023143146 -1.8644239e-19)
(0.2509543 -0.00031980043 -5.1210407e-19)
(0.25097092 -0.0004082391 -1.1357197e-19)
(0.25099124 -0.00049673665 -3.8522346e-20)
(0.25101467 -0.0005856609 -1.7868692e-19)
(0.25103908 -0.00067482201 -1.5977404e-19)
(0.25105541 -0.00075972197 -1.4955518e-19)
(0.25102652 -0.00083857781 -8.3459597e-20)
(0.25079811 -0.00098580402 -3.4080338e-20)
(0.24954942 -0.001485464 -2.7803828e-20)
(0.2411817 0.0014904344 -3.9802421e-19)
(0.25290631 -5.2391824e-05 -2.1563635e-18)
(0.25291356 -0.00012867936 -2.8292759e-18)
(0.25292967 -0.00020232594 -7.0194171e-19)
(0.25295369 -0.00027812692 -2.2854089e-19)
(0.25298503 -0.00035187867 -1.7859283e-19)
(0.25302278 -0.00042368282 2.9868695e-19)
(0.25306456 -0.0004936843 -7.9810954e-20)
(0.25310219 -0.00056251339 -1.6814508e-19)
(0.25310631 -0.00062550536 -4.7091452e-20)
(0.25297401 -0.00066089399 -9.5363543e-20)
(0.25231856 -0.00068576655 -1.1091101e-19)
(0.24919071 -0.0011507908 -2.0849481e-19)
(0.23317376 0.00055016191 -4.6663326e-19)
(0.25485703 -5.0201261e-05 -3.8439887e-19)
(0.25486389 -0.00012463928 -7.1719575e-19)
(0.2548791 -0.00019574884 -1.4630756e-18)
(0.2549016 -0.00026956178 4.0020569e-19)
(0.25493052 -0.00034177627 -1.0040348e-19)
(0.25496396 -0.00041257844 4.6771931e-19)
(0.25499618 -0.00048173979 1.9669211e-19)
(0.25500857 -0.00054996705 3.6853983e-19)
(0.25494172 -0.00061637669 3.843875e-19)
(0.2546073 -0.00066024169 -3.9313816e-20)
(0.25332071 -0.00063871076 -8.7319414e-20)
(0.2478214 -0.00092597142 -3.3456362e-19)
(0.22526486 0.00012340436 -5.2887339e-19)
(0.25664521 -4.9743849e-05 2.8059733e-18)
(0.25665224 -0.00012488064 5.6976535e-19)
(0.2566674 -0.00019721364 3.8928402e-19)
(0.2566896 -0.0002720698 -8.9748333e-21)
(0.25671747 -0.00034495172 -7.9030695e-20)
(0.25674738 -0.00041609227 1.2019995e-19)
(0.25676826 -0.0004848948 2.8037185e-19)
(0.25674667 -0.00055096518 3.17691e-19)
(0.25658539 -0.00061444887 -1.4319267e-19)
(0.2559957 -0.0006636637 -1.2093903e-19)
(0.2539403 -0.00063277351 -1.5665225e-19)
(0.24583249 -0.00077044467 -3.1803529e-19)
(0.21800982 -5.9385922e-05 -4.7254329e-19)
(0.25841323 -4.8556775e-05 -7.4285308e-20)
(0.2584204 -0.00012219546 8.0469797e-19)
(0.25843571 -0.00019301892 6.0280402e-19)
(0.25845781 -0.00026625064 -6.9433426e-19)
(0.25848442 -0.00033744492 1.2598062e-19)
(0.25850914 -0.00040689654 4.2152445e-20)
(0.25851346 -0.00047389151 9.3774806e-20)
(0.25844542 -0.0005370587 -9.9645377e-20)
(0.25816424 -0.00059536594 -8.2163226e-20)
(0.25726648 -0.00064373127 -1.0507454e-19)
(0.25431322 -0.00061442321 -2.1278395e-19)
(0.24352458 -0.00065114415 -1.1624073e-19)
(0.21163262 -0.00012321892 -3.071015e-19)
(0.26015467 -4.709344e-05 9.3506449e-20)
(0.26016187 -0.0001185153 1.1521967e-18)
(0.26017704 -0.0001870764 4.8128446e-19)
(0.2601984 -0.00025799462 5.9103892e-19)
(0.26022227 -0.00032687702 1.7291716e-19)
(0.26023853 -0.0003939878 1.5679792e-19)
(0.26021927 -0.00045855461 1.7498231e-19)
(0.26009115 -0.00051865148 7.5718972e-20)
(0.25966515 -0.00057157394 5.3841755e-20)
(0.2584067 -0.0006148087 3.3647012e-20)
(0.25443266 -0.00058544056 -6.6136788e-20)
(0.24102793 -0.0005571206 1.2485711e-19)
(0.20612335 -0.00013293671 -1.925581e-19)
(0.26183846 -4.5390268e-05 1.0139995e-18)
(0.26184561 -0.00011435405 5.1555121e-19)
(0.26186042 -0.00018050108 9.5651371e-19)
(0.26188043 -0.00024892327 1.0469051e-18)
(0.26190008 -0.00031528561 9.0125289e-20)
(0.26190445 -0.00037977027 7.2465018e-20)
(0.26185458 -0.00044151447 2.4754735e-19)
(0.2616533 -0.00049832849 -3.5542635e-21)
(0.26105826 -0.00054618084 -2.8729238e-19)
(0.25938354 -0.00058222647 2.1342392e-20)
(0.25426994 -0.00054801504 -7.6526965e-21)
(0.23842933 -0.00047868139 -3.3658424e-20)
(0.20141646 -0.00011963306 -3.1309254e-19)
(0.26345768 -4.3664882e-05 -1.8284722e-18)
(0.26346469 -0.00011008557 -1.0219019e-18)
(0.26347885 -0.00017377013 -4.2633282e-19)
(0.26349678 -0.00023963045 -1.6014536e-19)
(0.26351051 -0.00030340684 2.1455099e-19)
(0.26349932 -0.00036518044 1.0730841e-19)
(0.26341166 -0.00042394823 -7.3508968e-20)
(0.2631242 -0.00047735793 -1.7703453e-19)
(0.26233468 -0.00052050214 7.2763571e-20)
(0.26018092 -0.00054846095 3.0290367e-20)
(0.25381559 -0.00050481858 3.9455219e-20)
(0.23581666 -0.00040978299 1.4986256e-19)
(0.19745226 -9.8494616e-05 -2.9403003e-19)
(0.26501552 -4.2046877e-05 2.3643006e-18)
(0.26502225 -0.00010599907 1.8750599e-18)
(0.26503542 -0.0001673021 7.2148696e-19)
(0.26505044 -0.00023067618 9.269721e-19)
(0.26505633 -0.00029193976 3.2091716e-19)
(0.26502564 -0.00035106733 2.7837136e-19)
(0.26489279 -0.0004068816 -2.8971488e-20)
(0.26450568 -0.00045685739 -2.0214746e-20)
(0.26349313 -0.00049549056 -1.5846393e-19)
(0.26078727 -0.00051473411 -8.8837893e-20)
(0.25307513 -0.00045847926 -6.5730016e-21)
(0.23327192 -0.00034737981 3.008903e-19)
(0.19416843 -7.6932878e-05 -8.8000386e-20)
(0.2665165 -4.057706e-05 1.5080129e-18)
(0.26652283 -0.00010224007 1.0450782e-18)
(0.26653459 -0.00016134013 8.3054378e-19)
(0.26654572 -0.0002224043 9.5810268e-19)
(0.26654166 -0.00028132047 2.2356769e-19)
(0.26648729 -0.00033795568 9.9943107e-20)
(0.26630156 -0.0003909415 -4.6181221e-20)
(0.26580019 -0.00043752442 -5.7344578e-20)
(0.26453091 -0.00047164498 -1.2273291e-19)
(0.26118849 -0.00048140525 -1.7274665e-19)
(0.25206937 -0.00041120617 -9.2992033e-21)
(0.23086314 -0.00029047959 -1.0717198e-19)
(0.19149027 -5.8333255e-05 -2.4484764e-19)
(0.26796591 -3.9276698e-05 -2.4433272e-18)
(0.26797166 -9.8886215e-05 -9.2744711e-19)
(0.26798155 -0.00015601486 -8.2050327e-20)
(0.26798768 -0.00021499986 3.8302863e-19)
(0.26797137 -0.00027178437 2.0733697e-19)
(0.26788889 -0.00032612646 -3.9397791e-20)
(0.26764202 -0.00037645614 -3.4386219e-20)
(0.26700984 -0.00041972353 -1.0448356e-19)
(0.26544297 -0.00044912486 -1.2249601e-19)
(0.26137042 -0.00044842588 -1.2360978e-19)
(0.25083979 -0.00036475941 -1.0982745e-19)
(0.22864123 -0.00023936527 -5.2693998e-19)
(0.18933265 -4.3854023e-05 -2.2104417e-19)
(0.26936985 -3.8151202e-05 -1.3623637e-18)
(0.26937484 -9.5961771e-05 -5.5705693e-19)
(0.26938229 -0.00015136516 -1.7612201e-19)
(0.2693822 -0.00020851724 6.3064804e-20)
(0.26935114 -0.00026339986 2.3431646e-19)
(0.26923575 -0.00031565718 1.3630666e-20)
(0.26891866 -0.00036350366 -4.1106545e-20)
(0.26813622 -0.00040351927 -1.0918133e-20)
(0.26622207 -0.00042777198 -1.4937682e-19)
(0.26132397 -0.00041560855 -7.6224689e-20)
(0.24944814 -0.00032041762 -2.1980597e-19)
(0.22663743 -0.00019477817 -5.2170378e-19)
(0.18760708 -3.3365972e-05 -1.7403795e-19)
(0.27073452 -3.7186892e-05 3.722927e-19)
(0.27073851 -9.3441594e-05 -4.4905461e-19)
(0.27074291 -0.00014735094 1.0924433e-19)
(0.27073523 -0.00020290125 4.4317916e-19)
(0.27068668 -0.00025609589 3.1529959e-19)
(0.27053315 -0.00030645578 7.1317874e-20)
(0.27013553 -0.00035195662 -3.3222705e-20)
(0.26917943 -0.00038871662 -1.1278213e-19)
(0.26685881 -0.00040716162 -5.6689104e-20)
(0.26105041 -0.00038281109 -4.7443818e-20)
(0.24796793 -0.00027903903 -1.9646415e-19)
(0.2248628 -0.00015723519 -3.6423395e-19)
(0.18622942 -2.6089621e-05 -2.6113206e-19)
(0.27206549 -3.6358598e-05 1.3001556e-18)
(0.27206822 -9.1270024e-05 -4.6715189e-20)
(0.27206885 -0.00014388431 3.6975449e-19)
(0.27205207 -0.00019803069 1.3350174e-18)
(0.27198302 -0.00024971698 -1.7462736e-19)
(0.27178551 -0.0002983267 -9.4129641e-20)
(0.27129541 -0.00034156266 2.3199116e-19)
(0.27013718 -0.00037494839 -2.0330195e-19)
(0.26734241 -0.00038673535 -6.6454953e-20)
(0.2605654 -0.00035005845 -1.346676e-19)
(0.24647172 -0.00024119445 -1.708501e-19)
(0.22331131 -0.00012666963 -2.7623311e-19)
(0.18512583 -2.1076371e-05 -4.3303301e-19)
(0.27336737 -3.5638788e-05 6.7011976e-19)
(0.27336856 -8.938186e-05 -2.4745704e-19)
(0.27336463 -0.00014086217 9.5655544e-19)
(0.27333706 -0.00019376295 2.8517676e-19)
(0.27324415 -0.00024407934 -1.6161599e-20)
(0.27299604 -0.00029103798 -2.1259602e-19)
(0.27239931 -0.00033202382 1.8703667e-19)
(0.27100443 -0.00036176734 -8.5740752e-21)
(0.26766283 -0.00036596046 1.0323728e-19)
(0.25989992 -0.00031757793 -1.3309746e-19)
(0.24502002 -0.00020725746 -4.3409361e-19)
(0.22196569 -0.00010242448 -2.6192121e-19)
(0.18423545 -1.7507119e-05 -2.7521307e-19)
(0.27464382 -3.5002894e-05 9.6311993e-21)
(0.27464313 -8.7716017e-05 -1.8635377e-20)
(0.27463375 -0.00013818758 1.0248861e-18)
(0.2745935 -0.00018996324 1.4803977e-19)
(0.27447297 -0.00023900779 6.294812e-19)
(0.27416661 -0.00028436529 -3.1894953e-20)
(0.27344636 -0.00032304577 -1.1372533e-19)
(0.27177364 -0.00034871442 1.8304621e-20)
(0.26781391 -0.00034445792 -2.2273629e-19)
(0.25909705 -0.00028576382 -1.4176576e-19)
(0.2436552 -0.00017740821 -3.6183149e-19)
(0.22080343 -8.3473061e-05 -5.3390218e-19)
(0.18351045 -1.4804616e-05 -6.923057e-20)
(0.27589768 -3.4431105e-05 -2.2058807e-19)
(0.27589473 -8.6221418e-05 4.0074029e-19)
(0.27587888 -0.00013577914 -8.4511909e-20)
(0.27582384 -0.00018651757 1.7923345e-19)
(0.27567139 -0.00023435206 2.3005303e-19)
(0.27529788 -0.00027811161 1.5191385e-19)
(0.27443375 -0.00031435606 -1.4069062e-19)
(0.27243556 -0.00033536392 -1.106249e-19)
(0.26779662 -0.00032206948 -1.730539e-19)
(0.25820551 -0.00025510598 -1.4936763e-19)
(0.24240122 -0.00015160162 -1.0243334e-19)
(0.21980119 -6.8691001e-05 -3.2219083e-19)
(0.18291435 -1.2618553e-05 -3.053334e-19)
(0.27713109 -3.3908296e-05 8.8331435e-19)
(0.27712546 -8.4858001e-05 3.2580201e-19)
(0.27710201 -0.00013357264 -5.0648199e-19)
(0.27702977 -0.00018333501 2.1927273e-19)
(0.27684047 -0.00022998947 1.8316382e-19)
(0.2763893 -0.00027211088 2.7347308e-19)
(0.27535691 -0.00030570399 -1.1397777e-19)
(0.2729805 -0.00032135787 -8.2309367e-20)
(0.26762111 -0.00029886295 -1.9291902e-19)
(0.25727242 -0.00022610441 -2.1003304e-19)
(0.24126718 -0.00012956885 -2.8841029e-19)
(0.21893722 -5.7057432e-05 -2.4889183e-19)
(0.18241982 -1.0759081e-05 -2.8951895e-19)
(0.27834572 -3.3423243e-05 1.2105607e-18)
(0.27833694 -8.3595438e-05 6.8330094e-19)
(0.2783046 -0.00013151911 -1.5049731e-19)
(0.27821241 -0.00018034488 8.6238795e-19)
(0.27798052 -0.00022582105 6.9980084e-20)
(0.27743925 -0.00026622306 1.4582865e-19)
(0.27620962 -0.00029685485 3.0044109e-19)
(0.27340008 -0.00030643644 6.0009533e-20)
(0.26730692 -0.00027509383 -2.2171349e-19)
(0.25633756 -0.0001991843 -2.2282275e-19)
(0.24025214 -0.00011087579 -3.0478361e-19)
(0.21819234 -4.7749365e-05 -3.9809989e-19)
(0.18200662 -9.1303511e-06 -4.6707325e-19)
(0.27954284 -3.2967675e-05 1.5668766e-18)
(0.27953036 -8.2411065e-05 7.9380367e-19)
(0.27948767 -0.00012958149 1.3766403e-18)
(0.27937237 -0.00017749197 1.4725671e-19)
(0.27909121 -0.00022176546 1.9889099e-19)
(0.27844503 -0.00026032527 7.4411037e-20)
(0.27698441 -0.00028758731 3.6567515e-19)
(0.27368915 -0.00029046172 6.199971e-20)
(0.26688073 -0.00025114511 2.2629557e-19)
(0.25543062 -0.00017462896 9.0021762e-20)
(0.2393495 -9.5013852e-05 -1.2861667e-19)
(0.21755 -4.0152307e-05 -4.1233372e-20)
(0.18165972 -7.6839568e-06 -1.9395008e-19)
(0.28072346 -3.253541e-05 1.9040816e-18)
(0.28070667 -8.1287794e-05 7.5096775e-19)
(0.28065194 -0.00012773124 1.2633142e-18)
(0.28050986 -0.0001747318 1.7595492e-19)
(0.28017156 -0.00021775304 6.0851148e-20)
(0.27940289 -0.00025430188 1.9422466e-19)
(0.27767312 -0.00027769789 2.3109705e-19)
(0.27384765 -0.00027342827 3.9540197e-19)
(0.26637281 -0.00022746053 1.5598816e-19)
(0.2545711 -0.0001525485 -4.0045077e-19)
(0.23855012 -8.148403e-05 -4.3995017e-19)
(0.21699614 -3.3827435e-05 5.5840182e-20)
(0.18136794 -6.3925394e-06 1.4312738e-19)
(0.28188837 -3.2121656e-05 -4.8049144e-20)
(0.28186655 -8.0212344e-05 2.8141848e-18)
(0.28179785 -0.00012594549 2.606188e-19)
(0.28162471 -0.00017202641 2.7568663e-19)
(0.28121999 -0.00021372065 2.0191825e-19)
(0.28030804 -0.00024803603 1.1971106e-19)
(0.27826773 -0.00026701328 5.7854834e-20)
(0.27388156 -0.00025545692 3.9124175e-19)
(0.26581311 -0.00020447967 7.7800229e-20)
(0.25377001 -0.00013289057 -6.0167365e-19)
(0.23784411 -6.9849922e-05 -3.2078578e-19)
(0.21651887 -2.8467156e-05 -1.2915017e-19)
(0.18112283 -5.237095e-06 -7.9178968e-20)
(0.28303819 -3.1722486e-05 1.1544341e-18)
(0.28301052 -7.917385e-05 2.1719812e-18)
(0.28292559 -0.00012420469 3.946517e-19)
(0.28271638 -0.00016934096 -3.4387843e-19)
(0.2822343 -0.00020960734 5.9222287e-19)
(0.28115476 -0.00024140493 1.2852247e-19)
(0.27876144 -0.00025540748 -2.4103376e-19)
(0.27380291 -0.00023677356 2.7536856e-19)
(0.26522808 -0.00018258167 6.3579889e-20)
(0.25303215 -0.00011548282 -7.8595176e-20)
(0.23722187 -5.9756962e-05 1.7357825e-19)
(0.21610816 -2.3855675e-05 -1.4137161e-20)
(0.18091788 -4.2018452e-06 7.9222696e-20)
(0.28417339 -3.1334452e-05 8.850207e-19)
(0.28413893 -7.8162818e-05 -6.7813302e-19)
(0.28403512 -0.00012249081 1.3726231e-19)
(0.28378396 -0.00016664114 5.4024374e-19)
(0.28321158 -0.0002053501 2.6720455e-20)
(0.28193659 -0.00023428041 3.2252085e-19)
(0.27914984 -0.00024281874 5.4216227e-19)
(0.27362851 -0.00021767781 5.9702439e-19)
(0.26463906 -0.00016204558 -7.6306138e-21)
(0.25235823 -0.00010008753 -2.756391e-19)
(0.23667446 -5.0928434e-05 -2.4167296e-19)
(0.21575559 -1.9839555e-05 -3.2461118e-20)
(0.18074793 -3.2726391e-06 5.9896204e-20)
(0.28529433 -3.0954306e-05 1.4429632e-19)
(0.28525196 -7.7170337e-05 1.4737531e-19)
(0.28512619 -0.000120786 1.1073785e-18)
(0.28482614 -0.00016389138 8.3940707e-19)
(0.28414822 -0.00020087986 3.0372024e-19)
(0.28264669 -0.00022653515 3.25552e-19)
(0.27943202 -0.00022926076 5.4088216e-19)
(0.27337791 -0.00019850622 1.3768382e-19)
(0.26406181 -0.0001430334 1.6696436e-19)
(0.25174654 -8.6449682e-05 3.5466717e-19)
(0.23619383 -4.3151083e-05 -9.0117343e-20)
(0.21545404 -1.6307483e-05 -3.7626895e-21)
(0.18060883 -2.4367083e-06 2.463715e-20)
(0.28640123 -3.0578784e-05 9.7086342e-19)
(0.28634965 -7.6187464e-05 1.1948523e-18)
(0.28619826 -0.00011907139 1.0987494e-18)
(0.28584114 -0.00016105348 -2.2013758e-20)
(0.28503985 -0.00019611847 8.3581127e-19)
(0.2832784 -0.00021805401 3.325139e-19)
(0.27961117 -0.00021482471 1.3944515e-19)
(0.27307114 -0.00017959427 1.7165656e-19)
(0.26350715 -0.00012559658 2.8045693e-19)
(0.25119402 -7.4328968e-05 5.4555179e-19)
(0.23577276 -3.6259373e-05 3.9898637e-19)
(0.21519748 -1.3176838e-05 1.6829874e-19)
(0.18049716 -1.682759e-06 2.2185226e-19)
(0.28749419 -3.0204451e-05 -1.488684e-18)
(0.28743185 -7.520472e-05 2.1046977e-18)
(0.28725056 -0.00011732616 -1.1251883e-19)
(0.28682673 -0.00015808531 7.0328166e-20)
(0.28588145 -0.00019097762 6.051125e-19)
(0.28382593 -0.00020874813 3.5950601e-19)
(0.27969464 -0.00019967158 1.1370561e-20)
(0.27272685 -0.00016124193 1.6519561e-19)
(0.26298189 -0.00010969946 2.0460591e-19)
(0.25069697 -6.3515021e-05 6.2826909e-20)
(0.23540492 -3.0122544e-05 1.6429652e-19)
(0.21498079 -1.0384803e-05 5.2861555e-20)
(0.18041 -1.001003e-06 4.9942289e-20)
(0.28857317 -2.9827535e-05 -7.6709722e-20)
(0.28849825 -7.4211613e-05 1.0292069e-18)
(0.28828196 -0.00011552671 -2.0078592e-19)
(0.28778008 -0.00015493915 5.0393351e-20)
(0.28666738 -0.00018536089 4.4599227e-19)
(0.28428521 -0.00019856896 2.1905025e-19)
(0.27969326 -0.00018401637 1.1188299e-20)
(0.27236107 -0.00014368791 9.0822082e-20)
(0.26248991 -9.5249869e-05 1.9800307e-19)
(0.25025143 -5.3830555e-05 2.1065761e-19)
(0.23508472 -2.4635273e-05 -3.5382037e-20)
(0.21479959 -7.8824903e-06 2.7203042e-20)
(0.18034487 -3.8307993e-07 -1.4325902e-20)
(0.28963798 -2.9443749e-05 1.5711297e-18)
(0.28954832 -7.3196106e-05 -9.9444197e-19)
(0.28929102 -0.00011364594 -5.386755e-19)
(0.2886978 -0.00015155982 1.9203985e-19)
(0.28739174 -0.00017916927 -1.9023279e-19)
(0.28465455 -0.00018751865 1.281877e-19)
(0.27962017 -0.00016810641 5.9730795e-19)
(0.2719867 -0.00012709648 6.3264722e-19)
(0.26203302 -8.2127521e-05 1.4726107e-19)
(0.24985346 -4.5128132e-05 -4.1545548e-19)
(0.23480728 -1.9711267e-05 -1.9962957e-19)
(0.21465012 -5.630994e-06 -5.5795108e-21)
(0.18029962 1.7812682e-07 -2.0927298e-20)
(0.29068824 -2.9047997e-05 -2.294187e-19)
(0.29058125 -7.2143821e-05 -1.7280041e-19)
(0.29027586 -0.00011165221 3.5496656e-19)
(0.28957586 -0.00014788248 1.8687666e-19)
(0.28804865 -0.00017230926 -1.5245125e-19)
(0.28493523 -0.00017565385 2.5441269e-19)
(0.2794894 -0.00015219579 4.8108183e-19)
(0.2716136 -0.00011155661 1.3289895e-19)
(0.26161163 -7.0203563e-05 1.7904405e-19)
(0.24949925 -3.7283209e-05 2.5614927e-19)
(0.23456828 -1.5277063e-05 1.1745401e-19)
(0.21452909 -3.5978774e-06 -1.4735834e-19)
(0.18027234 6.8891419e-07 -9.1536408e-21)
(0.29172336 -2.863428e-05 7.5343349e-19)
(0.291596 -7.1037634e-05 8.7026639e-19)
(0.29123415 -0.00010950892 8.1818706e-19)
(0.29040962 -0.00014383257 -3.0245638e-20)
(0.28863287 -0.00016470429 6.1823549e-19)
(0.28513156 -0.00016308395 3.9284903e-19)
(0.27931466 -0.00013652206 2.5854529e-20)
(0.27124896 -9.7093557e-05 9.1830811e-20)
(0.26122524 -5.9353649e-05 1.5495641e-19)
(0.24918522 -3.0190177e-05 6.163909e-19)
(0.23436395 -1.1270302e-05 4.3208702e-19)
(0.2144337 -1.7305527e-06 4.8122636e-20)
(0.18026136 1.1761543e-06 1.0163778e-19)
(0.29274252 -2.8196035e-05 1.9966621e-19)
(0.29259116 -6.985846e-05 8.082561e-19)
(0.29216305 -0.00010717576 6.5752403e-19)
(0.29119393 -0.00013933085 3.7604241e-19)
(0.28914031 -0.00015631032 5.1233487e-19)
(0.28525057 -0.00014996782 2.5971613e-19)
(0.27910837 -0.00012129297 3.1114295e-20)
(0.2708978 -8.3692844e-05 4.0393231e-19)
(0.26087272 -4.9471602e-05 1.7701129e-19)
(0.24890802 -2.3766773e-05 -7.8588332e-20)
(0.23419085 -7.6476581e-06 1.4706959e-19)
(0.21436056 -1.6259882e-08 1.2856911e-19)
(0.18026627 1.6403951e-06 -1.0321835e-20)
(0.2937446 -2.7725099e-05 8.8054208e-19)
(0.29356496 -6.858319e-05 4.9907126e-19)
(0.29305914 -0.00010460504 1.1116885e-18)
(0.29192334 -0.00013429445 4.5014357e-19)
(0.28956868 -0.00014712078 3.5923123e-19)
(0.2853013 -0.00013649478 2.1299145e-19)
(0.27888121 -0.00010666836 2.3207309e-19)
(0.27056351 -7.1310469e-05 6.067495e-19)
(0.26055265 -4.0462888e-05 2.9883324e-19)
(0.24866458 -1.7940251e-05 5.4593566e-20)
(0.23404606 -4.3539034e-06 1.8337389e-19)
(0.21430781 1.5374071e-06 1.320925e-19)
(0.18028522 2.0563878e-06 2.8721223e-20)
(0.29472815 -2.7211026e-05 1.2341878e-18)
(0.29451518 -6.7183247e-05 9.8453624e-20)
(0.29391842 -0.00010173906 1.0507297e-18)
(0.29259237 -0.00012864185 8.651161e-19)
(0.28991788 -0.00013716949 -1.5311609e-19)
(0.28529395 -0.00012286451 5.8647067e-19)
(0.27864192 -9.2752915e-05 9.4626282e-19)
(0.27024822 -5.9882431e-05 6.6631124e-19)
(0.26026336 -3.2238653e-05 -4.1198194e-21)
(0.24845204 -1.2642368e-05 -3.3631183e-19)
(0.23392646 -1.3358752e-06 -2.4243252e-19)
(0.21427448 2.9561805e-06 1.3444625e-19)
(0.18031663 2.4263137e-06 -4.8516373e-21)
(0.29569132 -2.6641404e-05 3.0906486e-19)
(0.2954391 -6.5625549e-05 8.6774219e-19)
(0.29473631 -9.8512686e-05 1.5844242e-18)
(0.29319592 -0.00012230569 9.4234853e-19)
(0.29019018 -0.00012653596 1.2960408e-19)
(0.2852389 -0.00010927514 5.320439e-19)
(0.27839743 -7.960725e-05 5.0017636e-19)
(0.26995312 -4.9342212e-05 -1.8711155e-19)
(0.26000309 -2.4722164e-05 1.1221823e-19)
(0.24826773 -7.8150798e-06 2.7355217e-19)
(0.23382955 1.4151586e-06 -2.4225559e-19)
(0.21425921 4.2390868e-06 -3.0408277e-20)
(0.18035932 2.7544376e-06 6.5640236e-21)
(0.29663173 -2.6001182e-05 -2.3237623e-19)
(0.29633339 -6.3871157e-05 3.007365e-19)
(0.29550768 -9.4853896e-05 2.2992814e-19)
(0.29372976 -0.00011524119 3.9742728e-19)
(0.29039011 -0.00011533897 1.1131442e-18)
(0.28514604 -9.5905374e-05 3.038814e-19)
(0.27815305 -6.7254125e-05 -1.0442582e-19)
(0.26967872 -3.9623318e-05 3.661715e-19)
(0.25977003 -1.7841841e-05 5.5003483e-19)
(0.24810923 -3.3839535e-06 6.4684986e-19)
(0.23375398 3.9312166e-06 4.6659169e-19)
(0.21425996 5.3906181e-06 1.3689501e-19)
(0.18041214 3.0443444e-06 1.8885237e-19)
(0.29754645 -2.527239e-05 1.4194151e-18)
(0.29719411 -6.1874452e-05 8.2115701e-19)
(0.29622706 -9.0687762e-05 -2.5318893e-19)
(0.29419101 -0.00010743479 1.4708974e-19)
(0.290524 -0.00010372737 1.0161422e-18)
(0.28502427 -8.2903358e-05 3.7976778e-19)
(0.27791277 -5.5688926e-05 2.2208047e-19)
(0.26942499 -3.0662221e-05 4.5608936e-19)
(0.25956226 -1.153967e-05 2.1039358e-19)
(0.24797362 6.7590746e-07 1.6091169e-19)
(0.23369893 6.2277291e-06 3.2376197e-19)
(0.21427538 6.4296429e-06 1.5084977e-19)
(0.18047413 3.3030905e-06 1.5378257e-20)
(0.29843186 -2.4434089e-05 2.7735005e-18)
(0.29801658 -5.958298e-05 2.6787384e-18)
(0.29688883 -8.5943395e-05 7.5748926e-19)
(0.29457851 -9.8910843e-05 3.2303058e-19)
(0.29059935 -9.1868426e-05 3.9544707e-19)
(0.28488126 -7.0382615e-05 4.7167742e-19)
(0.27767954 -4.4890672e-05 1.6134263e-19)
(0.26919163 -2.2395833e-05 2.049627e-19)
(0.25937815 -5.7364067e-06 -3.8250029e-20)
(0.24785972 4.3904929e-06 1.3454524e-19)
(0.2336621 8.3016039e-06 1.9395079e-19)
(0.21430404 7.3667027e-06 1.0925759e-19)
(0.18054443 3.535467e-06 1.7029902e-20)
(0.29928359 -2.3462153e-05 5.4128723e-20)
(0.29879547 -5.6937591e-05 -6.0393814e-20)
(0.29748763 -8.056162e-05 1.5413966e-19)
(0.29489309 -8.9732426e-05 1.1127081e-18)
(0.29062422 -7.9932334e-05 -2.8096045e-19)
(0.28472341 -5.8420096e-05 5.6473888e-19)
(0.27745536 -3.4827523e-05 1.1463179e-18)
(0.26897782 -1.4770399e-05 8.4178671e-19)
(0.25921519 -3.9179047e-07 3.375109e-19)
(0.24776702 7.7920519e-06 -3.0255771e-19)
(0.23364198 1.0181107e-05 -2.4568501e-19)
(0.21434474 8.2147658e-06 -5.5351791e-20)
(0.18062225 3.7449982e-06 6.1336884e-20)
(0.30009637 -2.232973e-05 -1.7742052e-20)
(0.29952479 -5.3875497e-05 3.9276982e-19)
(0.29801875 -7.4505253e-05 5.3358389e-19)
(0.29513749 -7.9999947e-05 6.2246466e-19)
(0.29060659 -6.8080576e-05 8.9823853e-20)
(0.28455591 -4.7062475e-05 2.3032153e-19)
(0.27724164 -2.5459222e-05 8.3022633e-19)
(0.2687829 -7.7156666e-06 -3.4521283e-20)
(0.25907248 4.515394e-06 7.1562869e-20)
(0.24769347 1.0881385e-05 -2.118829e-19)
(0.23363709 1.1884864e-05 -3.5065752e-19)
(0.21439637 8.9837426e-06 -2.3631187e-19)
(0.1807069 3.9343472e-06 -8.2854113e-20)
(0.30086402 -2.1007837e-05 1.9289536e-18)
(0.30019808 -5.0335138e-05 2.8081099e-18)
(0.29847858 -6.7767499e-05 1.3760235e-18)
(0.29531607 -6.984362e-05 -6.7088825e-19)
(0.29055391 -5.6454421e-05 6.7998098e-19)
(0.28438287 -3.6332022e-05 1.4617622e-19)
(0.27703906 -1.6748262e-05 -4.0716266e-19)
(0.2686053 -1.1875257e-06 -5.5853525e-19)
(0.25894976 9.0213364e-06 3.0724978e-20)
(0.24763751 1.3689795e-05 3.0890718e-19)
(0.23364609 1.3431087e-05 2.1860861e-19)
(0.21445793 9.6806799e-06 -1.4032654e-19)
(0.18079772 4.1050182e-06 -1.0546666e-19)
(0.30157943 -1.9467191e-05 1.841692e-18)
(0.30080863 -4.6264339e-05 3.5871695e-18)
(0.29886499 -6.0378828e-05 8.9018393e-19)
(0.29543444 -5.9413954e-05 1.1885805e-19)
(0.29047287 -4.5169369e-05 4.8987493e-19)
(0.28420752 -2.6229155e-05 3.9583445e-19)
(0.27684812 -8.6362734e-06 -1.9060272e-19)
(0.26844451 4.8386402e-06 -1.374322e-19)
(0.25884557 1.3135762e-05 3.8430237e-19)
(0.2475977 1.6244092e-05 3.8498131e-19)
(0.23366777 1.4835351e-05 2.6977066e-19)
(0.21452852 1.0311982e-05 5.2606551e-20)
(0.18089414 4.2585287e-06 -1.041426e-19)
(0.30223466 -1.768157e-05 -6.1752455e-19)
(0.3013499 -4.163043e-05 6.216065e-19)
(0.29917751 -5.2409541e-05 4.6988137e-19)
(0.29549883 -4.8869427e-05 6.8286166e-19)
(0.29036918 -3.431366e-05 3.3304705e-19)
(0.28403214 -1.6747523e-05 3.3552934e-19)
(0.27666826 -1.0891172e-06 6.904047e-19)
(0.26830088 1.0390968e-05 1.1639145e-20)
(0.25875851 1.6888477e-05 -5.4566722e-20)
(0.24757272 1.8568178e-05 -2.6944191e-19)
(0.23370102 1.6110016e-05 -6.2157432e-20)
(0.21460732 1.0882759e-05 -2.2376266e-19)
(0.18099561 4.3960732e-06 -1.2607079e-19)
(0.30282117 -1.5633392e-05 -1.5530476e-18)
(0.30181594 -3.643149e-05 1.9673913e-19)
(0.29941741 -4.3968563e-05 6.4794434e-19)
(0.29551566 -3.8365476e-05 6.8211007e-19)
(0.2902477 -2.3945236e-05 7.3530941e-19)
(0.28385859 -7.8477394e-06 4.3428523e-19)
(0.27649982 5.9141091e-06 4.9151333e-19)
(0.26817344 1.54798e-05 2.0936292e-20)
(0.25868728 2.0310829e-05 -1.1744621e-19)
(0.24756135 2.0682626e-05 -2.4941427e-19)
(0.23374484 1.7265695e-05 -2.5475681e-19)
(0.21469357 1.1397583e-05 -1.2444798e-19)
(0.18110164 4.5187591e-06 -8.5053457e-20)
(0.30333026 -1.3320791e-05 2.0034779e-18)
(0.30220189 -3.0705593e-05 2.7374097e-18)
(0.29958744 -3.5196383e-05 9.1693818e-19)
(0.29549103 -2.804366e-05 1.1065861e-18)
(0.29011218 -1.4099858e-05 7.2845853e-19)
(0.28368733 4.8515439e-07 3.6408367e-19)
(0.276344 1.2388882e-05 -2.9260666e-19)
(0.26806118 2.0135111e-05 7.8260192e-20)
(0.2586307 2.3431338e-05 -2.1566379e-20)
(0.24756246 2.2604555e-05 2.45271e-19)
(0.23379832 1.8311465e-05 2.4781842e-20)
(0.21478659 1.1860462e-05 2.2333213e-19)
(0.18121176 4.6275472e-06 7.8810876e-23)
(0.30375374 -1.0764905e-05 1.893924e-18)
(0.30250438 -2.453636e-05 2.6436063e-18)
(0.29969147 -2.6255605e-05 3.3539093e-18)
(0.29543051 -1.8024213e-05 3.7857214e-20)
(0.28996562 -4.7858303e-06 1.1583345e-19)
(0.28352015 8.2431015e-06 -7.3111799e-20)
(0.27620025 1.8335865e-05 -4.8428398e-19)
(0.26796311 2.4389451e-05 -1.2670663e-19)
(0.25858763 2.6274643e-05 -1.455912e-19)
(0.24757502 2.4348902e-05 1.7966922e-19)
(0.2338606 1.9255528e-05 1.9485114e-19)
(0.21488574 1.2275081e-05 -1.991965e-19)
(0.18132555 4.7233407e-06 -3.1842515e-20)
(0.30408466 -8.0145757e-06 -7.7418838e-19)
(0.30272186 -1.8051797e-05 2.6643547e-18)
(0.29973407 -1.7315896e-05 1.6114473e-18)
(0.29533886 -8.3895991e-06 2.498823e-19)
(0.28980995 3.9789447e-06 1.1530963e-19)
(0.28335875 1.5424482e-05 9.7457918e-20)
(0.27606809 2.3784718e-05 -1.5137528e-19)
(0.26787825 2.8272268e-05 -1.5415221e-19)
(0.25855702 2.8860154e-05 6.3875866e-20)
(0.24759808 2.5927606e-05 2.9675758e-19)
(0.23393092 2.0104406e-05 2.3352057e-19)
(0.21499042 1.2644229e-05 1.0294884e-19)
(0.1814426 4.8067235e-06 3.3128159e-20)
(0.30431819 -5.1449449e-06 1.0760181e-18)
(0.30285461 -1.1412644e-05 7.4978661e-20)
(0.29971994 -8.5331724e-06 -2.4891981e-19)
(0.29521955 7.820689e-07 1.2434391e-18)
(0.28964857 1.2143065e-05 8.1084571e-19)
(0.28320331 2.2022602e-05 6.1011293e-19)
(0.27594691 2.8765104e-05 1.28485e-18)
(0.26780566 3.1808678e-05 3.6614538e-19)
(0.25853789 3.1205158e-05 3.7415818e-19)
(0.24763076 2.7351701e-05 -7.8970353e-21)
(0.23400854 2.0864192e-05 2.0024221e-19)
(0.2151001 1.2970548e-05 2.1779343e-19)
(0.18156252 4.8782856e-06 7.2655802e-20)
(0.30445222 -2.2472332e-06 8.4439096e-19)
(0.30290466 -4.7892412e-06 8.7664296e-20)
(0.2996534 -5.7452869e-08 5.5946549e-19)
(0.29507686 9.3868597e-06 7.0154209e-19)
(0.28948321 1.9670536e-05 9.7499063e-19)
(0.28305386 2.8057783e-05 5.4669226e-19)
(0.27583605 3.3302658e-05 7.9429697e-19)
(0.26774441 3.5018172e-05 5.0772797e-19)
(0.25852929 3.3323415e-05 4.0220081e-19)
(0.24767222 2.8629894e-05 5.5171112e-20)
(0.23409279 2.1539479e-05 1.2110332e-19)
(0.21521426 1.3255884e-05 1.3539191e-19)
(0.18168496 4.9383528e-06 5.2655633e-20)
(0.30448759 5.8143131e-07 1.8575459e-18)
(0.30287533 1.6331918e-06 2.6951548e-18)
(0.29953939 7.9403763e-06 9.071841e-19)
(0.29491435 1.7334231e-05 6.6324145e-19)
(0.28931491 2.6550369e-05 4.1796293e-19)
(0.28291026 3.3548699e-05 4.564203e-19)
(0.2757348 3.74165e-05 -1.0306221e-19)
(0.26769361 3.7916249e-05 2.587512e-19)
(0.25853035 3.5226088e-05 2.5964401e-19)
(0.24772169 2.9769054e-05 2.2670798e-19)
(0.23418305 2.2133714e-05 -1.8914276e-20)
(0.2153324 1.3501514e-05 2.746452e-19)
(0.18180955 4.9870784e-06 5.4102376e-20)
(0.30442824 3.2381409e-06 9.1824891e-19)
(0.30277199 7.6569839e-06 2.7681175e-18)
(0.29938292 1.5303999e-05 2.5405154e-18)
(0.29473444 2.4565361e-05 1.2137608e-19)
(0.28914434 3.2781683e-05 -4.994315e-20)
(0.28277222 3.8508108e-05 2.7675512e-19)
(0.27564244 4.1120431e-05 -7.7584518e-20)
(0.26765239 4.0514568e-05 2.3034003e-19)
(0.25854021 3.692134e-05 1.2133137e-19)
(0.24777843 3.0773879e-05 2.3781137e-19)
(0.23427872 2.2648982e-05 5.5811887e-20)
(0.21545406 1.3708003e-05 -5.3730315e-20)
(0.18193595 5.0243863e-06 -1.5303721e-20)
(0.30428148 5.6355937e-06 1.5693474e-18)
(0.30260141 1.3122386e-05 2.8781603e-18)
(0.29918843 2.1930423e-05 6.6672819e-19)
(0.29453912 3.1047519e-05 -1.0615471e-20)
(0.28897192 3.8362682e-05 3.9575891e-19)
(0.28263933 4.2943541e-05 -4.6428809e-20)
(0.2755582 4.442383e-05 -1.3328793e-19)
(0.26761989 4.2820974e-05 8.9445637e-20)
(0.25855808 3.841424e-05 -8.134517e-20)
(0.24784174 3.1646836e-05 3.3513907e-19)
(0.23437921 2.3085948e-05 3.0350244e-19)
(0.21557877 1.3875161e-05 3.1720467e-20)
(0.18206381 5.0499484e-06 -1.9463643e-21)
(0.30405678 7.7205505e-06 1.4557346e-18)
(0.30237113 1.7926723e-05 1.5536669e-18)
(0.29896016 2.7756829e-05 2.3940115e-19)
(0.29433004 3.6759531e-05 6.8736255e-20)
(0.28879784 4.3291013e-05 2.6669605e-19)
(0.2825111 4.6859624e-05 2.5781206e-19)
(0.2754813 4.7332615e-05 2.3009688e-19)
(0.26759529 4.4839954e-05 8.7637075e-20)
(0.25858316 3.9707106e-05 1.0479915e-19)
(0.24791094 3.2388404e-05 2.4836764e-19)
(0.23448396 2.3444002e-05 1.1876184e-19)
(0.21570609 1.4002112e-05 1.0822952e-19)
(0.18219278 5.0632093e-06 5.5739754e-20)
(0.30376497 9.4677035e-06 -1.9618414e-18)
(0.30208913 2.2015502e-05 -2.6657776e-19)
(0.29870222 3.2751954e-05 1.4041246e-18)
(0.29410866 4.1691485e-05 1.0466928e-18)
(0.2886222 4.7566352e-05 -1.7428071e-19)