/*--------------------------------*- C++ -*----------------------------------*\
| =========                 |                                                 |
| \\      /  F ield         | OpenFOAM: The Open Source CFD Toolbox           |
|  \\    /   O peration     | Version:  2506                                  |
|   \\  /    A nd           | Website:  www.openfoam.com                      |
|    \\/     M anipulation  |                                                 |
\*---------------------------------------------------------------------------*/
FoamFile
{
    version     2.0;
    format      ascii;
    arch        "LSB;label=32;scalar=64";
    class       volScalarField;
    location    "6000/water";
    object      alphat;
}
// * * * * * * * * * * * * * * * * * * * * * * * * * * * * * * * * * * * * * //

dimensions      [1 -1 -1 0 0 0 0];

internalField   nonuniform List<scalar> 
2600
(
0.040489031
0.04048893
0.040488932
0.040488969
0.04048893
0.040488424
0.040485257
0.04046703
0.040362559
0.039762099
0.036475623
0.024118064
0.014862723
0.039376404
0.039376463
0.039376584
0.03937667
0.03937627
0.039373342
0.039357935
0.03928206
0.038918252
0.037247647
0.030707814
0.017504579
0.016810247
0.03845331
0.038453299
0.038453385
0.038453188
0.038451259
0.038441479
0.038397507
0.038208927
0.037432867
0.034484227
0.025768479
0.01464355
0.017680736
0.037674097
0.037673994
0.037673876
0.037672833
0.03766736
0.037643826
0.037549741
0.037190974
0.035896577
0.031717985
0.022022178
0.013507107
0.017935556
0.037006829
0.037006634
0.03700605
0.037003229
0.036991211
0.03694503
0.036777672
0.036201229
0.034343725
0.029136321
0.019390213
0.01332192
0.01787019
0.036428097
0.036427705
0.036426239
0.036420305
0.036397905
0.036319194
0.03605724
0.035231095
0.03281421
0.026833154
0.017684561
0.01376901
0.017658004
0.035920433
0.035919673
0.03591673
0.035905979
0.035868817
0.035747845
0.035374204
0.034281783
0.031338745
0.024847734
0.016751764
0.014701365
0.017395975
0.035470606
0.03546924
0.035464057
0.035446499
0.035390052
0.035218253
0.034721129
0.033357857
0.029935921
0.02320089
0.016491475
0.016024754
0.017137191
0.035068412
0.03506614
0.035057811
0.035031314
0.034951338
0.034722033
0.034094772
0.032463227
0.028616047
0.021918168
0.016839593
0.01764423
0.016909598
0.034705855
0.034702323
0.034689851
0.034652315
0.034545228
0.034254009
0.03349406
0.031599319
0.027389013
0.021039007
0.017742707
0.01944683
0.016725717
0.034376582
0.0343714
0.034353768
0.03430331
0.034166516
0.033811296
0.032918607
0.030765036
0.026274288
0.020612421
0.019134169
0.021310298
0.0165878
0.034075484
0.034068256
0.034044512
0.033979658
0.033811775
0.033392551
0.032367695
0.029958513
0.025310237
0.020682514
0.02092045
0.023125093
0.01649134
0.03379842
0.033788771
0.033758129
0.033677993
0.033478994
0.032997353
0.031839672
0.029180919
0.024557973
0.021270679
0.022983308
0.024813263
0.016428198
0.033542011
0.033529635
0.033491576
0.033396025
0.033167279
0.032625685
0.031331905
0.02844226
0.024095308
0.02236241
0.02519592
0.026333969
0.016389375
0.033303501
0.033288203
0.033242589
0.033132389
0.0328766
0.032277488
0.030841496
0.027768047
0.024001078
0.023903802
0.027443847
0.027676786
0.016366908
0.033080659
0.033062404
0.03300959
0.032886524
0.032607559
0.031952311
0.030367144
0.027204004
0.02433601
0.025808536
0.029640409
0.028850257
0.01635471
0.032871707
0.032850677
0.032791627
0.032658586
0.032361164
0.031649138
0.029912405
0.026815113
0.025128026
0.027972561
0.031731261
0.029871995
0.016348606
0.032675278
0.032651931
0.032588332
0.032449362
0.032138606
0.031366538
0.029490156
0.026676983
0.02636662
0.030291378
0.033689748
0.030762439
0.016345973
0.032490392
0.032465523
0.0323999
0.032260198
0.031941021
0.031103392
0.02912715
0.026861558
0.028006318
0.032674378
0.035508202
0.031541613
0.016345289
0.03231644
0.032291251
0.032227075
0.032092906
0.0317693
0.030860474
0.028866522
0.027422392
0.02997661
0.035052626
0.037189756
0.032227633
0.016345749
0.032153193
0.032129365
0.032071151
0.03194966
0.031623986
0.030643051
0.028765901
0.028384666
0.032194873
0.037379728
0.038742713
0.03283612
0.016346971
0.032000817
0.031980587
0.031933965
0.031832869
0.031505423
0.030464306
0.028890209
0.029742268
0.034578895
0.039628039
0.040177388
0.03338011
0.016348812
0.031859898
0.031846136
0.031817892
0.031745018
0.031414332
0.030348687
0.029300795
0.031461309
0.037056243
0.041783221
0.041504536
0.033870256
0.016351246
0.031731488
0.031727775
0.031725824
0.031688525
0.031353059
0.030333689
0.030044463
0.033487924
0.03956915
0.043839374
0.042734578
0.034315152
0.016354289
0.031617156
0.031627852
0.031661123
0.031665646
0.031327616
0.03046839
0.031145811
0.035757861
0.042075207
0.045795593
0.043877213
0.034721702
0.016357969
0.031519059
0.031549348
0.031627545
0.031678558
0.031350386
0.030808116
0.032604583
0.038205562
0.044545297
0.047653852
0.044941233
0.035095454
0.016362308
0.03144002
0.031495925
0.031629136
0.031729781
0.031442847
0.031406233
0.034397782
0.040771061
0.046960465
0.04941777
0.045934484
0.035440886
0.01636731
0.031383622
0.031471952
0.031670108
0.031823119
0.03163718
0.032305488
0.03648515
0.043403916
0.049308924
0.051091864
0.046863895
0.035761637
0.016372969
0.03135431
0.031482519
0.031754745
0.031965285
0.031975485
0.033531428
0.038816233
0.046064361
0.051583769
0.052681066
0.047735561
0.036060692
0.016379266
0.031357497
0.031533412
0.031887427
0.032168113
0.032505946
0.03508941
0.041337345
0.04872249
0.053781404
0.054190403
0.048554837
0.036340517
0.016386174
0.03139966
0.031631057
0.032072922
0.032450916
0.033276476
0.036965352
0.043997169
0.051356523
0.055900494
0.05562481
0.04932644
0.036603249
0.016393659
0.031488427
0.031782429
0.032317111
0.032842101
0.034327512
0.039129417
0.046750332
0.053950902
0.057941208
0.056988873
0.05005408
0.036848497
0.016401672
0.031632621
0.031994974
0.032628309
0.033378945
0.03568599
0.041541301
0.049558967
0.056494685
0.05990472
0.058286906
0.050741228
0.037078062
0.016410157
0.031842264
0.032276621
0.033019163
0.034104841
0.037361931
0.044155838
0.052392717
0.058980328
0.061792817
0.059522759
0.051390028
0.037293994
0.016419061
0.03212853
0.032636022
0.033508773
0.035064183
0.039348113
0.046927808
0.055227861
0.061402784
0.063607643
0.060699938
0.052002678
0.037497696
0.016428334
0.03250367
0.033083205
0.034124298
0.036296102
0.041622406
0.04981536
0.058046136
0.063758862
0.065351546
0.061821638
0.052582581
0.037690194
0.016437945
0.032981002
0.033630797
0.03490106
0.037828735
0.044151817
0.05278187
0.060833586
0.066046679
0.067026701
0.0628895
0.053132468
0.03787253
0.016447872
0.033575094
0.034295805
0.035880367
0.03967545
0.046897156
0.055796505
0.063579599
0.068265331
0.068635567
0.063907354
0.053654301
0.038045473
0.016458088
0.034302368
0.035101605
0.037105069
0.041833721
0.049817346
0.058833933
0.066276152
0.070414391
0.070179107
0.064878396
0.054149994
0.038209783
0.016468569
0.035182278
0.036079354
0.038613762
0.044286504
0.052872734
0.061873595
0.068917174
0.072494023
0.071660186
0.065805208
0.054621164
0.038366084
0.016479288
0.036239042
0.037267812
0.040435156
0.047005436
0.056027175
0.064898914
0.071498024
0.074503818
0.073081481
0.066690098
0.055069326
0.038514917
0.016490218
0.037503417
0.03871079
0.042584046
0.049954864
0.059248938
0.067896463
0.074015182
0.076444641
0.074445475
0.067535118
0.055495818
0.038656742
0.016501334
0.0390135
0.04045227
0.04505972
0.053095834
0.062510848
0.070855335
0.076465324
0.078317611
0.075754304
0.068342167
0.055901826
0.038791953
0.01651261
0.040813304
0.042530161
0.047846812
0.056389301
0.06578981
0.073766508
0.078846466
0.080124252
0.077009867
0.069112938
0.056288385
0.038920881
0.016524019
0.042948313
0.044970321
0.050918055
0.05979838
0.069066322
0.076621969
0.081156916
0.081865794
0.078213924
0.069848942
0.056656394
0.039043804
0.016535536
0.045458367
0.047782285
0.054237942
0.063289385
0.072323488
0.079415205
0.083396341
0.083543326
0.079368018
0.07055149
0.057006628
0.039160949
0.016547136
0.048369476
0.05095755
0.057766452
0.066832233
0.075546551
0.08214074
0.085564131
0.085157806
0.080473483
0.071221707
0.057339735
0.039272496
0.016558794
0.051686897
0.054470394
0.0614621
0.070399914
0.078721984
0.084794906
0.087659691
0.086709987
0.081531428
0.071860532
0.057656247
0.039378584
0.016570485
0.055391458
0.058280527
0.06528366
0.073967534
0.081839602
0.087374102
0.089682321
0.088200392
0.082542726
0.072468714
0.057956586
0.039479308
0.016582185
0.059440016
0.062336485
0.069190787
0.077513996
0.084890565
0.089874873
0.091631141
0.089629278
0.083508001
0.073046819
0.058241061
0.039574723
0.016593867
0.063769452
0.066579707
0.073146286
0.081021466
0.087866728
0.0922938
0.093505044
0.090996618
0.084427623
0.073595224
0.058509872
0.039664845
0.016605507
0.068304139
0.070949113
0.077116109
0.084473704
0.090760477
0.094627427
0.095302669
0.092302089
0.085301704
0.074114119
0.058763113
0.03974965
0.016617076
0.07296393
0.075384319
0.081068514
0.087855767
0.093564613
0.096872241
0.097022405
0.093545081
0.086130107
0.074603515
0.059000772
0.039829074
0.016628545
0.07767118
0.07982833
0.084974019
0.091153806
0.096272313
0.099024696
0.098662424
0.094724722
0.08691246
0.075063249
0.05922274
0.039903018
0.016639885
0.082355804
0.084229544
0.088805507
0.094354979
0.09887714
0.10108128
0.10022075
0.095839926
0.087648186
0.075493006
0.059428816
0.039971349
0.016651062
0.086958159
0.088543041
0.092538455
0.097447471
0.1013731
0.10303861
0.10169535
0.096889463
0.088336554
0.075892346
0.059618725
0.040033908
0.016662041
0.091430033
0.092731224
0.096151211
0.10042059
0.10375476
0.10489356
0.10308424
0.097872046
0.088976733
0.076260737
0.059792134
0.040090512
0.016672786
0.095734312
0.09676389
0.099625244
0.10326489
0.10601731
0.10664337
0.10438562
0.098786438
0.089567873
0.07659761
0.059948683
0.040140972
0.016683256
0.099843853
0.10061787
0.1029453
0.10597234
0.10815674
0.10828577
0.105598
0.099631552
0.09010918
0.076902404
0.060088009
0.0401851
0.016693411
0.10374002
0.10427635
0.10609942
0.10853644
0.11016991
0.1098191
0.10672028
0.10040656
0.090600001
0.077174632
0.060209786
0.040222724
0.016703211
0.10741118
0.10772812
0.10907887
0.11095229
0.1120546
0.11124238
0.10775188
0.10111097
0.091039903
0.077413931
0.060313756
0.040253705
0.016712613
0.11085129
0.11096666
0.11187787
0.11321659
0.11380959
0.11255534
0.10869276
0.10174472
0.091428738
0.077620123
0.060399765
0.040277952
0.016721578
0.11405867
0.11398934
0.11449338
0.11532764
0.11543467
0.11375848
0.10954353
0.10230821
0.091766701
0.077793253
0.06046779
0.040295432
0.01673007
0.11703504
0.11679668
0.11692474
0.11728523
0.11693059
0.11485304
0.11030536
0.10280236
0.09205436
0.077933623
0.060517964
0.040306181
0.016738054
0.11978466
0.11939167
0.11917331
0.11909054
0.11829904
0.11584096
0.11098007
0.10322856
0.092292676
0.078041816
0.06055059
0.040310313
0.016745503
0.12231369
0.12177925
0.12124219
0.12074595
0.11954253
0.11672486
0.11157
0.10358869
0.092482998
0.078118697
0.060566148
0.040308022
0.016752392
0.12462971
0.12396582
0.12313584
0.12225493
0.12066435
0.11750793
0.11207804
0.10388509
0.092627045
0.078165408
0.060565294
0.040299578
0.016758707
0.12674127
0.12595886
0.12485985
0.12362184
0.12166847
0.1181939
0.1125075
0.10412049
0.092726877
0.07818335
0.060548848
0.040285326
0.016764435
0.12865761
0.12776665
0.12642068
0.12485178
0.12255937
0.11878692
0.11286209
0.10429797
0.092784847
0.078174154
0.060517777
0.040265675
0.016769576
0.13038841
0.129398
0.12782543
0.12595044
0.12334203
0.11929151
0.11314581
0.10442089
0.092803558
0.078139644
0.060473177
0.040241092
0.01677413
0.13194361
0.13086205
0.12908165
0.12692397
0.12402175
0.11971244
0.11336291
0.10449281
0.092785805
0.078081801
0.060416242
0.040212081
0.016778109
0.13333323
0.13216814
0.13019719
0.12777882
0.1246041
0.1200547
0.11351779
0.10451746
0.092734524
0.078002721
0.06034824
0.040179181
0.016781528
0.13456727
0.13332564
0.13118009
0.12852167
0.12509483
0.12032339
0.11361494
0.10449866
0.092652739
0.077904571
0.060270486
0.040142943
0.016784407
0.13565563
0.13434388
0.13203844
0.1291593
0.12549975
0.12052366
0.11365892
0.10444025
0.092543513
0.077789552
0.060184311
0.040103923
0.016786771
0.13660801
0.13523205
0.13278029
0.12969854
0.12582474
0.12066067
0.11365426
0.10434608
0.0924099
0.07765986
0.060091041
0.040062671
0.016788648
0.13743386
0.13599913
0.1334136
0.13014615
0.12607562
0.12073953
0.1136054
0.10421994
0.092254911
0.077517658
0.059991974
0.040019718
0.016790068
0.13814234
0.13665387
0.13394614
0.1305088
0.12625812
0.12076524
0.11351674
0.1040655
0.092081477
0.07736504
0.059888362
0.039975568
0.016791065
0.13874229
0.13720472
0.1343855
0.13079302
0.12637785
0.1207427
0.1133925
0.10388635
0.091892417
0.077204018
0.059781392
0.039930695
0.016791671
0.1392422
0.1376598
0.134739
0.13100515
0.12644027
0.12067662
0.11323676
0.10368589
0.091690426
0.077036494
0.059672178
0.039885532
0.016791922
0.13965019
0.13802692
0.1350137
0.1311513
0.12645064
0.12057156
0.11305343
0.10346739
0.091478047
0.076864254
0.059561751
0.039840476
0.01679185
0.139974
0.13831352
0.13521634
0.13123737
0.12641401
0.12043188
0.11284623
0.10323392
0.09125767
0.076688957
0.059451055
0.039795879
0.01679149
0.14022098
0.13852667
0.13535338
0.13126898
0.12633523
0.1202617
0.11261868
0.10298836
0.091031516
0.076512125
0.059340943
0.039752054
0.016790874
0.14039813
0.13867311
0.13543096
0.13125151
0.12621891
0.12006498
0.11237408
0.10273342
0.090801638
0.07633515
0.059232179
0.039709272
0.016790033
0.14051203
0.13875918
0.13545489
0.13119005
0.12606942
0.11984541
0.11211554
0.10247159
0.090569917
0.076159283
0.059125434
0.039667763
0.016788996
0.14056889
0.13879088
0.13543067
0.13108942
0.12589088
0.11960649
0.11184596
0.10220519
0.090338061
0.07598564
0.059021294
0.03962772
0.016787793
0.14057455
0.13877385
0.13536346
0.13095418
0.12568718
0.11935148
0.111568
0.10193631
0.090107602
0.075815191
0.058920209
0.039589088
0.016786448
0.1405345
0.13871337
0.13525814
0.13078857
0.12546195
0.1190834
0.11128413
0.10166686
0.089879896
0.075648762
0.058822538
0.03955182
0.016784982
0.14045383
0.13861439
0.13511923
0.13059661
0.12521858
0.11880507
0.11099661
0.10139856
0.089656114
0.07548699
0.058728305
0.039516205
0.016783416
0.14033733
0.13848152
0.13495099
0.13038201
0.12496022
0.11851906
0.11070746
0.10113292
0.089437276
0.075330451
0.058637844
0.039482368
0.016781768
0.14018944
0.13831904
0.13475737
0.13014822
0.12468978
0.11822775
0.11041854
0.10087125
0.089224165
0.075179264
0.058551586
0.039450399
0.01678006
0.14001427
0.13813095
0.13454202
0.12989847
0.12440996
0.11793328
0.11013147
0.1006147
0.089017403
0.075034115
0.05846967
0.039420343
0.016778309
0.13981565
0.13792095
0.13430836
0.12963571
0.12412321
0.11763763
0.10984772
0.10036422
0.088817525
0.074895457
0.058392216
0.039392231
0.016776533
0.13959712
0.13769244
0.13405952
0.1293627
0.12383181
0.11734253
0.10956851
0.10012048
0.088625328
0.074763536
0.058319303
0.039366071
0.016774746
0.13936196
0.1374486
0.13379841
0.12908193
0.12353779
0.11704955
0.10929487
0.099884414
0.088441282
0.074638531
0.058250971
0.039341856
0.016772962
0.13911317
0.13719234
0.1335277
0.12879572
0.12324302
0.11676003
0.10902783
0.09965683
0.088265742
0.074520567
0.058187224
0.039319563
0.016771194
0.13885353
0.13692632
0.13324982
0.12850614
0.12294911
0.11647516
0.10876847
0.09943829
0.088098974
0.074409711
0.058128034
0.039299157
0.01676945
0.13858556
0.13665298
0.13296697
0.12821501
0.12265747
0.11619627
0.1085176
0.099229246
0.087941161
0.074305975
0.058073343
0.039280588
0.016767742
0.13831156
0.13637451
0.13268109
0.127924
0.12236965
0.11592442
0.10827589
0.099030038
0.087792405
0.074209319
0.058023063
0.0392638
0.016766075
0.13803354
0.13609283
0.13239399
0.12763476
0.12208692
0.11566051
0.10804388
0.098840906
0.08765273
0.074119649
0.057977077
0.039248722
0.016764457
0.13775336
0.13580978
0.13210738
0.12734875
0.1218104
0.11540528
0.10782197
0.098661994
0.087522093
0.074036829
0.057935245
0.039235275
0.016762894
0.13747273
0.13552701
0.13182279
0.12706724
0.12154104
0.11515936
0.10761049
0.09849336
0.087400389
0.073960681
0.057897407
0.039223376
0.016761388
0.1371932
0.13524603
0.13154158
0.12679136
0.12127967
0.11492325
0.10740965
0.098334991
0.087287463
0.073891003
0.057863388
0.039212936
0.016759944
0.13691616
0.13496819
0.13126496
0.1265221
0.12102698
0.11469735
0.10721956
0.098186815
0.087183124
0.073827569
0.05783301
0.039203867
0.016758562
0.13664288
0.13469471
0.13099401
0.12626031
0.12078355
0.11448196
0.1070403
0.098048713
0.087087153
0.073770145
0.057806093
0.039196083
0.016757246
0.1363745
0.13442667
0.13072969
0.12600674
0.12054989
0.11427731
0.10687187
0.09792053
0.086999313
0.073718491
0.057782458
0.039189503
0.016755996
0.13611204
0.13416502
0.13047282
0.12576203
0.12032639
0.11408356
0.10671422
0.097802076
0.086919348
0.073672363
0.057761934
0.03918405
0.016754812
0.13585637
0.13391062
0.13022414
0.12552672
0.12011336
0.11390081
0.10656726
0.097693132
0.08684699
0.073631514
0.057744348
0.039179652
0.016753696
0.1356083
0.1336642
0.12998428
0.12530126
0.11991105
0.11372907
0.10643084
0.097593445
0.086781952
0.073595691
0.057729531
0.039176237
0.016752648
0.13536849
0.13342638
0.12975374
0.125086
0.1197196
0.11356832
0.10630477
0.09750273
0.086723926
0.073564629
0.057717309
0.039173735
0.016751668
0.13513749
0.13319769
0.12953294
0.1248812
0.11953909
0.11341844
0.1061888
0.097420665
0.086672585
0.073538055
0.057707503
0.039172071
0.016750754
0.13491576
0.13297853
0.12932221
0.12468702
0.11936951
0.11327925
0.10608265
0.097346897
0.086627579
0.073515685
0.057699931
0.03917117
0.016749907
0.13470365
0.13276923
0.12912176
0.12450356
0.11921079
0.11315054
0.10598597
0.097281048
0.086588549
0.073497228
0.057694409
0.039170958
0.016749124
0.13450143
0.13257
0.12893173
0.12433081
0.11906277
0.11303204
0.10589841
0.097222725
0.086555128
0.073482397
0.057690755
0.039171359
0.016748403
0.13430927
0.132381
0.12875219
0.12416874
0.11892529
0.11292344
0.10581959
0.097171528
0.086526954
0.073470914
0.057688798
0.039172304
0.016747742
0.13412729
0.13220231
0.12858315
0.12401724
0.11879812
0.11282441
0.10574912
0.097127064
0.086503679
0.073462512
0.057688377
0.039173731
0.016747138
0.13395555
0.13203395
0.12842458
0.12387617
0.11868101
0.11273463
0.10568662
0.09708895
0.08648497
0.073456948
0.057689349
0.039175585
0.016746589
0.13379405
0.13187591
0.12827639
0.12374536
0.1185737
0.11265374
0.10563171
0.097056817
0.086470513
0.073453992
0.057691582
0.039177819
0.016746094
0.13364275
0.13172812
0.12813845
0.12362462
0.1184759
0.1125814
0.10558401
0.097030304
0.086460007
0.07345343
0.057694957
0.039180391
0.016745649
0.13350156
0.13159047
0.12801062
0.12351369
0.11838729
0.11251724
0.10554313
0.097009057
0.086453159
0.073455057
0.057699358
0.039183263
0.016745254
0.13337035
0.13146281
0.12789268
0.12341233
0.11830755
0.11246088
0.10550869
0.096992718
0.086449679
0.073458668
0.057704675
0.039186396
0.016744906
0.13324894
0.13134494
0.1277844
0.12332021
0.1182363
0.11241191
0.1054803
0.096980926
0.086449273
0.073464059
0.057710791
0.039189749
0.016744602
0.1331371
0.13123662
0.12768548
0.12323701
0.11817317
0.11236994
0.10545753
0.096973311
0.086451645
0.073471023
0.057717592
0.039193281
0.016744342
0.13303457
0.13113755
0.12759561
0.12316235
0.11811773
0.11233451
0.10543997
0.096969503
0.086456499
0.073479353
0.057724959
0.039196945
0.016744121
0.13294104
0.13104742
0.12751443
0.12309584
0.11806956
0.1123052
0.10542721
0.096969138
0.086463545
0.073488849
0.057732779
0.0392007
0.016743937
0.13285619
0.1309659
0.12744159
0.12303708
0.11802824
0.11228157
0.10541883
0.096971867
0.086472513
0.073499325
0.05774095
0.039204506
0.016743787
0.13277967
0.13089263
0.12737669
0.12298566
0.11799333
0.11226321
0.10541447
0.096977365
0.086483154
0.073510617
0.05774938
0.039208331
0.016743668
0.13271115
0.13082725
0.12731937
0.12294119
0.11796445
0.11224973
0.10541375
0.096985341
0.08649525
0.073522583
0.057757999
0.039212151
0.016743578
0.13265029
0.13076942
0.12726926
0.12290329
0.1179412
0.11224076
0.10541638
0.096995534
0.086508613
0.073535108
0.057766751
0.039215949
0.016743513
0.13259675
0.13071881
0.12722602
0.1228716
0.11792323
0.11223598
0.10542204
0.097007714
0.08652308
0.073548094
0.057775592
0.039219716
0.016743474
0.13255021
0.13067507
0.1271893
0.12284577
0.1179102
0.11223506
0.10543048
0.097021668
0.086538504
0.073561458
0.057784489
0.039223449
0.016743457
0.13251035
0.13063788
0.12715875
0.12282545
0.11790177
0.1122377
0.10544143
0.097037194
0.086554748
0.073575121
0.057793411
0.039227141
0.016743461
0.1324768
0.13060688
0.12713402
0.1228103
0.11789761
0.11224358
0.10545463
0.09705409
0.08657167
0.073589
0.05780232
0.039230785
0.016743487
0.13244923
0.1305817
0.12711475
0.12279994
0.11789736
0.1122524
0.10546982
0.097072145
0.086589122
0.073603005
0.057811175
0.03923437
0.016743531
0.13242722
0.13056197
0.12710054
0.12279399
0.11790066
0.11226383
0.1054867
0.097091138
0.086606943
0.073617034
0.057819921
0.039237876
0.016743593
0.13241039
0.13054728
0.12709099
0.12279205
0.11790713
0.11227752
0.105505
0.09711084
0.086624968
0.073630979
0.057828501
0.039241283
0.016743669
0.13239829
0.13053719
0.12708568
0.12279372
0.11791639
0.11229313
0.10552443
0.097131023
0.086643029
0.07364473
0.057836854
0.039244564
0.016743759
0.13239051
0.13053128
0.12708417
0.12279859
0.11792807
0.11231035
0.1055447
0.097151473
0.086660972
0.073658188
0.057844924
0.0392477
0.016743859
0.13238663
0.13052914
0.12708608
0.12280627
0.11794182
0.11232885
0.10556559
0.097171999
0.086678662
0.073671268
0.057852666
0.039250657
0.016743966
0.13238625
0.13053038
0.12709102
0.12281642
0.11795732
0.11234838
0.10558686
0.097192444
0.086695995
0.073683908
0.057860047
0.039253413
0.016744079
0.13238903
0.13053464
0.12709865
0.12282871
0.11797429
0.1123687
0.10560835
0.09721269
0.086712899
0.073696071
0.057867043
0.03925598
0.016744195
0.13239465
0.13054163
0.12710868
0.12284289
0.11799252
0.11238966
0.10562993
0.097232659
0.086729334
0.073707744
0.057873653
0.039258375
0.016744313
0.13240284
0.13055107
0.12712087
0.12285873
0.11801183
0.11241109
0.10565152
0.097252301
0.086745284
0.073718921
0.057879914
0.039260609
0.016744432
0.13241339
0.13056274
0.12713499
0.12287605
0.11803205
0.11243292
0.10567305
0.097271594
0.086760753
0.07372963
0.05788585
0.039262698
0.016744553
0.13242609
0.13057645
0.12715087
0.1228947
0.11805308
0.11245503
0.10569447
0.097290514
0.086775726
0.073739908
0.057891488
0.03926466
0.016744676
0.13244076
0.13059202
0.12716834
0.1229145
0.11807478
0.11247736
0.10571573
0.097309033
0.086790229
0.073749767
0.057896847
0.03926651
0.0167448
0.1324572
0.13060925
0.12718721
0.12293532
0.11809703
0.1124998
0.10573676
0.097327114
0.086804254
0.073759216
0.057901941
0.039268259
0.016744926
0.1324752
0.13062793
0.12720729
0.12295697
0.11811967
0.11252222
0.10575746
0.097344721
0.086817779
0.073768248
0.057906772
0.03926991
0.016745054
0.13249453
0.13064784
0.12722836
0.12297925
0.11814254
0.11254449
0.10577775
0.097361786
0.086830761
0.073776842
0.057911334
0.039271465
0.016745183
0.13251492
0.13066873
0.12725017
0.12300194
0.11816543
0.11256645
0.10579751
0.09737823
0.086843149
0.073784967
0.057915612
0.039272916
0.016745312
0.13253609
0.13069032
0.12727248
0.1230248
0.11818814
0.11258795
0.10581662
0.097393965
0.086854881
0.073792587
0.057919584
0.039274256
0.01674544
0.13255776
0.13071233
0.12729501
0.1230476
0.1182105
0.11260883
0.10583498
0.097408906
0.086865901
0.073799663
0.05792323
0.039275473
0.016745566
0.13257966
0.1307345
0.12731752
0.12307012
0.11823231
0.11262897
0.10585247
0.097422981
0.086876161
0.073806167
0.057926533
0.039276559
0.016745689
0.13260153
0.13075658
0.12733979
0.12309219
0.11825345
0.11264825
0.10586901
0.097436139
0.086885631
0.073812083
0.057929482
0.039277508
0.016745806
0.13262316
0.13077837
0.12736165
0.12311367
0.11827379
0.1126666
0.10588457
0.097448359
0.086894304
0.073817411
0.05793208
0.039278319
0.016745918
0.13264443
0.13079975
0.12738298
0.12313444
0.11829327
0.11268397
0.10589913
0.097459647
0.086902199
0.073822172
0.057934342
0.039278996
0.016746023
0.13266523
0.13082062
0.1274037
0.12315447
0.11831187
0.11270038
0.10591272
0.097470041
0.086909357
0.073826403
0.057936292
0.039279551
0.016746121
0.13268553
0.13084094
0.12742378
0.12317375
0.1183296
0.11271585
0.10592538
0.097479601
0.086915838
0.073830154
0.057937967
0.03928
0.016746212
0.13270533
0.13086073
0.12744324
0.12319229
0.1183465
0.11273044
0.10593719
0.097488403
0.086921713
0.073833486
0.057939405
0.039280359
0.016746297
0.13272467
0.13088
0.12746212
0.12321016
0.11836265
0.11274424
0.10594822
0.097496529
0.086927058
0.073836457
0.057940648
0.039280649
0.016746377
0.1327436
0.13089882
0.12748045
0.12322739
0.11837809
0.11275731
0.10595857
0.097504055
0.086931941
0.073839125
0.057941733
0.039280887
0.016746452
0.13276215
0.13091721
0.12749829
0.12324405
0.11839288
0.11276972
0.10596828
0.097511043
0.086936417
0.073841531
0.057942689
0.039281089
0.016746524
0.13278035
0.1309352
0.12751566
0.12326015
0.11840706
0.11278149
0.10597741
0.097517536
0.086940525
0.073843708
0.057943537
0.039281263
0.016746593
0.13279819
0.1309528
0.12753255
0.12327569
0.11842064
0.11279265
0.10598597
0.097523558
0.086944285
0.073845668
0.057944285
0.039281414
0.01674666
0.13281563
0.13096995
0.12754894
0.12329067
0.1184336
0.1128032
0.10599397
0.097529108
0.086947698
0.073847414
0.057944934
0.039281543
0.016746725
0.1328326
0.13098661
0.12756476
0.12330502
0.11844589
0.1128131
0.10600138
0.097534171
0.086950752
0.073848934
0.057945475
0.039281643
0.016746787
0.132849
0.13100267
0.12757995
0.12331867
0.11845748
0.11282231
0.10600817
0.097538725
0.086953428
0.073850213
0.057945896
0.039281709
0.016746846
0.13286473
0.13101804
0.1275944
0.12333157
0.1184683
0.11283078
0.10601431
0.097542745
0.086955707
0.073851235
0.057946184
0.039281733
0.016746902
0.13287967
0.13103261
0.12760803
0.12334362
0.11847829
0.11283849
0.10601977
0.097546212
0.086957574
0.073851988
0.057946331
0.039281708
0.016746953
0.13289372
0.1310463
0.12762077
0.12335479
0.11848743
0.11284541
0.10602454
0.097549121
0.086959028
0.073852471
0.057946333
0.039281632
0.016746999
0.1329068
0.13105903
0.12763256
0.12336503
0.11849569
0.11285154
0.10602864
0.097551485
0.086960081
0.073852692
0.057946194
0.039281503
0.01674704
0.13291888
0.13107076
0.12764337
0.12337434
0.11850308
0.11285689
0.10603208
0.097553333
0.086960759
0.073852672
0.057945927
0.039281327
0.016747076
0.13292993
0.13108149
0.12765321
0.12338272
0.11850963
0.1128615
0.10603492
0.097554711
0.086961103
0.073852442
0.05794555
0.03928111
0.016747106
0.13293997
0.13109123
0.1276621
0.12339022
0.11851539
0.11286545
0.10603721
0.097555674
0.086961162
0.073852039
0.057945087
0.039280864
0.016747132
0.13294903
0.13110002
0.1276701
0.12339691
0.11852043
0.11286878
0.10603901
0.097556285
0.086960986
0.073851502
0.057944564
0.039280598
0.016747153
0.13295718
0.13110791
0.12767725
0.12340283
0.11852481
0.11287158
0.10604041
0.097556601
0.086960624
0.073850867
0.057944002
0.039280324
0.016747171
0.13296447
0.13111497
0.12768362
0.12340805
0.1185286
0.1128739
0.10604144
0.097556675
0.08696012
0.073850166
0.057943422
0.03928005
0.016747185
0.13297097
0.13112125
0.12768928
0.12341264
0.11853186
0.1128758
0.10604217
0.097556546
0.086959503
0.07384942
0.057942837
0.039279784
0.016747198
0.13297672
0.13112682
0.12769426
0.12341664
0.11853462
0.11287732
0.10604262
0.09755624
0.086958792
0.07384864
0.057942252
0.039279526
0.016747208
0.13298178
0.13113171
0.12769862
0.12342009
0.11853693
0.11287847
0.10604281
0.097555769
0.086957993
0.073847829
0.057941668
0.039279277
0.016747217
0.13298619
0.13113595
0.12770238
0.123423
0.11853878
0.11287928
0.10604276
0.097555136
0.086957106
0.073846982
0.057941079
0.039279032
0.016747225
0.13298996
0.13113959
0.12770556
0.1234254
0.11854021
0.11287974
0.10604245
0.097554337
0.086956123
0.073846092
0.057940478
0.039278788
0.01674723
0.13299314
0.13114263
0.12770819
0.1234273
0.11854121
0.11287987
0.10604189
0.09755337
0.086955039
0.07384515
0.057939857
0.039278539
0.016747234
0.13299576
0.13114513
0.12771029
0.12342872
0.11854181
0.11287968
0.1060411
0.097552237
0.086953852
0.073844154
0.057939212
0.039278282
0.016747236
0.13299786
0.13114711
0.12771189
0.1234297
0.11854203
0.11287918
0.10604007
0.097550951
0.086952571
0.073843106
0.057938544
0.039278015
0.016747235
0.13299951
0.13114863
0.12771306
0.12343028
0.11854191
0.11287842
0.10603886
0.097549534
0.086951212
0.073842018
0.057937858
0.03927774
0.016747233
0.13300076
0.13114976
0.12771385
0.12343052
0.1185415
0.11287744
0.10603749
0.09754802
0.086949802
0.07384091
0.057937165
0.039277462
0.016747228
0.13300171
0.13115057
0.12771433
0.12343048
0.11854087
0.11287629
0.10603601
0.097546452
0.086948375
0.073839806
0.057936482
0.039277188
0.016747221
0.13300243
0.13115114
0.12771457
0.12343023
0.11854007
0.11287503
0.10603447
0.097544872
0.086946965
0.073838732
0.057935826
0.039276925
0.016747213
0.13300298
0.13115154
0.12771465
0.12342984
0.11853918
0.11287372
0.10603293
0.097543319
0.086945605
0.073837712
0.057935211
0.039276683
0.016747205
0.13300343
0.13115183
0.12771461
0.12342936
0.11853822
0.1128724
0.10603142
0.097541825
0.086944317
0.073836761
0.057934649
0.039276466
0.016747197
0.1330038
0.13115203
0.1277145
0.12342882
0.11853725
0.11287109
0.10602996
0.097540405
0.086943113
0.073835889
0.057934145
0.039276278
0.01674719
0.13300411
0.13115217
0.12771432
0.12342823
0.11853626
0.1128698
0.10602855
0.097539061
0.086941992
0.073835094
0.057933699
0.039276121
0.016747183
0.13300433
0.13115223
0.12771407
0.12342759
0.11853524
0.11286852
0.10602718
0.097537776
0.086940939
0.073834362
0.057933304
0.039275992
0.016747178
0.13300443
0.13115217
0.12771371
0.12342686
0.11853417
0.11286723
0.10602582
0.097536525
0.086939929
0.073833673
0.057932941
0.039275881
0.016747173
0.13300434
0.13115194
0.1277132
0.12342601
0.11853301
0.11286588
0.10602444
0.097535274
0.086938931
0.073832999
0.057932591
0.039275774