/*--------------------------------*- C++ -*----------------------------------*\
| =========                 |                                                 |
| \\      /  F ield         | OpenFOAM: The Open Source CFD Toolbox           |
|  \\    /   O peration     | Version:  2506                                  |
|   \\  /    A nd           | Website:  www.openfoam.com                      |
|    \\/     M anipulation  |                                                 |
\*---------------------------------------------------------------------------*/
FoamFile
{
    version     2.0;
    format      ascii;
    arch        "LSB;label=32;scalar=64";
    class       volScalarField;
    location    "6000/water";
    object      epsilon;
}
// * * * * * * * * * * * * * * * * * * * * * * * * * * * * * * * * * * * * * //

dimensions      [0 2 -3 0 0 0 0];

internalField   nonuniform List<scalar> 
2600
(
8.8079773e-05
8.8079245e-05
8.8079271e-05
8.807949e-05
8.8079744e-05
8.8080245e-05
8.8082926e-05
8.8104349e-05
8.8272771e-05
8.9512908e-05
9.8428186e-05
0.00017145296
0.0010138716
6.7789348e-05
6.7791881e-05
6.7793339e-05
6.7794963e-05
6.7796901e-05
6.7799886e-05
6.7810178e-05
6.7875511e-05
6.8312468e-05
7.1039872e-05
8.7857083e-05
0.00021159534
0.0014669324
5.3500886e-05
5.3503148e-05
5.3504846e-05
5.3506859e-05
5.3509287e-05
5.3513643e-05
5.3532992e-05
5.3656306e-05
5.4399641e-05
5.8506995e-05
8.1500797e-05
0.00023956052
0.0017068244
4.3127504e-05
4.3128883e-05
4.3130503e-05
4.3132598e-05
4.3135149e-05
4.3140834e-05
4.3171684e-05
4.3362646e-05
4.4413342e-05
4.9710824e-05
7.7552644e-05
0.00025818579
0.0017816909
3.539909e-05
3.5400132e-05
3.5401605e-05
3.5403513e-05
3.5405834e-05
3.5412916e-05
3.5457613e-05
3.5722605e-05
3.7073304e-05
4.3450503e-05
7.5629285e-05
0.00027290618
0.0017622817
2.9510599e-05
2.9511446e-05
2.95127e-05
2.9514227e-05
2.9516143e-05
2.9525119e-05
2.9586798e-05
2.9933924e-05
3.159515e-05
3.9095388e-05
7.5939385e-05
0.00028837858
0.0017002497
2.4935213e-05
2.4935877e-05
2.4936847e-05
2.4937875e-05
2.4939416e-05
2.4951342e-05
2.503458e-05
2.5477125e-05
2.7489448e-05
3.6318413e-05
7.8818158e-05
0.0003073199
0.0016256765
2.1318423e-05
2.1318913e-05
2.1319549e-05
2.132003e-05
2.1321464e-05
2.1338095e-05
2.144948e-05
2.2008273e-05
2.4447975e-05
3.4968795e-05
8.4593389e-05
0.00033066897
0.0015541994
1.8415642e-05
1.8415958e-05
1.8416233e-05
1.8416208e-05
1.8418091e-05
1.8442025e-05
1.8590687e-05
1.9295945e-05
2.2279378e-05
3.5010665e-05
9.3512814e-05
0.00035786641
0.0014930959
1.6054297e-05
1.6054439e-05
1.6054351e-05
1.6053968e-05
1.6057197e-05
1.6092028e-05
1.6290179e-05
1.7183376e-05
2.0872546e-05
3.6486908e-05
0.00010564207
0.00038720676
0.0014449141
1.411016e-05
1.4110129e-05
1.4109712e-05
1.4109249e-05
1.4115119e-05
1.4165612e-05
1.4429188e-05
1.5565379e-05
2.0175367e-05
3.9486471e-05
0.00012074249
0.00041640751
0.0014094648
1.249217e-05
1.2491978e-05
1.249131e-05
1.24912e-05
1.2501471e-05
1.2573786e-05
1.2923263e-05
1.4374121e-05
2.0181311e-05
4.4103574e-05
0.00013819401
0.0004433175
0.0013850187
1.1132483e-05
1.1132152e-05
1.1131368e-05
1.1132227e-05
1.1149209e-05
1.1251189e-05
1.1712642e-05
1.3570321e-05
2.0918928e-05
5.0386672e-05
0.00015703479
0.00046647967
0.0013691707
9.9797899e-06
9.9793621e-06
9.9786681e-06
9.9813266e-06
1.0007987e-05
1.0149541e-05
1.0756002e-05
1.3137755e-05
2.2440689e-05
5.8285038e-05
0.00017613324
0.00048532286
0.0013594869
8.994766e-06
8.994305e-06
8.9939894e-06
8.9995396e-06
9.0396464e-06
9.2332357e-06
1.0026406e-05
1.3079617e-05
2.4808572e-05
6.7609618e-05
0.00019442665
0.00050000486
0.0013539038
8.1468971e-06
8.1464947e-06
8.1469469e-06
8.1567947e-06
8.2150975e-06
8.4763588e-06
9.5087285e-06
1.3415553e-05
2.807526e-05
7.8026841e-05
0.0002111215
0.00051110137
0.0013508788
7.4122408e-06
7.412023e-06
7.4137548e-06
7.4296903e-06
7.5121568e-06
7.8606834e-06
9.1980663e-06
1.4178291e-05
3.2262331e-05
8.9094588e-05
0.00022578146
0.00051932558
0.0013493668
6.7718206e-06
6.7719549e-06
6.7756276e-06
6.7999151e-06
6.9140283e-06
7.3743439e-06
9.0987625e-06
1.5408888e-05
3.7339829e-05
0.00010033156
0.00023829849
0.00052535583
0.0013487149
6.2104575e-06
6.2111621e-06
6.2176208e-06
6.2531142e-06
6.4082476e-06
7.0110033e-06
9.2236697e-06
1.7149875e-05
4.3213605e-05
0.00011129559
0.0002487951
0.00052976262
0.0013485457
5.7159095e-06
5.7174657e-06
5.7277834e-06
5.7780724e-06
5.9859581e-06
6.7693776e-06
9.5932706e-06
1.9436232e-05
4.9726067e-05
0.00012164394
0.00025751549
0.00053299526
0.0013486594
5.2782322e-06
5.2809984e-06
5.2965329e-06
5.3661281e-06
5.6414368e-06
6.6530083e-06
1.0234238e-05
2.228513e-05
5.6672016e-05
0.00013115952
0.00026474159
0.0005353945
0.0013489619
4.889296e-06
4.893728e-06
4.9161934e-06
5.0107595e-06
5.3718124e-06
6.6701645e-06
1.1177042e-05
2.5686553e-05
6.3825678e-05
0.00013974422
0.00027074338
0.00053721257
0.0013494179
4.5424222e-06
4.549097e-06
4.5806559e-06
4.707302e-06
5.1769356e-06
6.8337316e-06
1.2452335e-05
2.9597477e-05
7.097079e-05
0.00014739148
0.0002757568
0.0005386328
0.0013500205
4.2321037e-06
4.2417515e-06
4.2851315e-06
4.4527719e-06
5.0593678e-06
7.1609028e-06
1.4086152e-05
3.394183e-05
7.7925113e-05
0.00015415333
0.00027997823
0.00053978641
0.0013507744
3.9537926e-06
3.9673375e-06
4.0259782e-06
4.2457763e-06
5.0244499e-06
7.6724686e-06
1.6094424e-05
3.8616919e-05
8.4553952e-05
0.00016011197
0.00028356674
0.00054076616
0.0013516866
3.7037376e-06
3.7223496e-06
3.8005873e-06
4.0864974e-06
5.0804009e-06
8.3914976e-06
1.8477844e-05
4.3504911e-05
9.0772061e-05
0.00016536002
0.00028664926
0.00054163685
0.0013527623
3.4788613e-06
3.504022e-06
3.6073203e-06
3.9767408e-06
5.2383695e-06
9.3412707e-06
2.1218352e-05
4.8486364e-05
9.6537094e-05
0.00016998886
0.00028932618
0.00054244334
0.0013540034
3.2766694e-06
3.3102566e-06
3.4454921e-06
3.9200366e-06
5.512335e-06
1.0542478e-05
2.4278371e-05
5.3452376e-05
0.00010183911
0.00017408281
0.00029167657
0.00054321637
0.0013554084
3.0951868e-06
3.1395803e-06
3.315394e-06
3.9217755e-06
5.9187332e-06
1.2009945e-05
2.7603266e-05
5.8312862e-05
0.0001066899
0.00017771679
0.00029376257
0.00054397675
0.0013569729
2.9329181e-06
2.991133e-06
3.2183574e-06
3.9893517e-06
6.4756801e-06
1.3749403e-05
3.112658e-05
6.3000085e-05
0.00011111418
0.0001809559
0.00029563313
0.00054473837
0.0013586903
2.7888292e-06
2.8646819e-06
3.1568532e-06
4.132263e-06
7.2016968e-06
1.5755029e-05
3.4776808e-05
6.7468124e-05
0.00011514328
0.00018385585
0.00029732665
0.00054550992
0.0013605531
2.6623516e-06
2.7606641e-06
3.1346228e-06
4.362102e-06
8.1139276e-06
1.8008404e-05
3.8484156e-05
7.1689805e-05
0.00011881108
0.00018646428
0.00029887505
0.00054629402
0.0013625491
2.5534087e-06
2.680258e-06
3.1568304e-06
4.6923496e-06
9.22598e-06
2.0479254e-05
4.21859e-05
7.5652556e-05
0.00012215122
0.00018882083
0.00030030031
0.00054708344
0.001364665
2.4624667e-06
2.6254826e-06
3.2302146e-06
5.1378783e-06
1.0545685e-05
2.3127918e-05
4.5829653e-05
7.9354439e-05
0.00012519597
0.00019095973
0.00030162122
0.00054787012
0.0013668874
2.3906118e-06
2.5993266e-06
3.3632045e-06
5.714089e-06
1.2073206e-05
2.5908984e-05
4.9374527e-05
8.2800767e-05
0.00012797522
0.0001929092
0.00030285018
0.00054865287
0.0013692048
2.3396576e-06
2.6059009e-06
3.565945e-06
6.4356565e-06
1.379994e-05
2.8775319e-05
5.2790668e-05
8.6001443e-05
0.00013051585
0.00019469159
0.00030399376
0.00054944272
0.0013716092
2.3122834e-06
2.6506068e-06
3.8501617e-06
7.314953e-06
1.5708513e-05
3.1681692e-05
5.6057927e-05
8.8969441e-05
0.00013284315
0.00019632773
0.00030505437
0.00055025018
0.0013740956
2.312204e-06
2.740297e-06
4.2287854e-06
8.3603379e-06
1.7773921e-05
3.4587408e-05
5.9163895e-05
9.1718485e-05
0.000134977
0.0001978295
0.00030604752
0.00055107622
0.0013766577
2.3443664e-06
2.8833942e-06
4.7152658e-06
9.5746043e-06
1.9965609e-05
3.7457895e-05
6.2102575e-05
9.4263947e-05
0.00013693775
0.00019920349
0.00030698675
0.00055192215
0.0013792894
2.4151612e-06
3.0899098e-06
5.3225442e-06
1.0953904e-05
2.2249993e-05
4.026506e-05
6.4872079e-05
9.6618924e-05
0.00013873802
0.00020046565
0.00030788006
0.00055278755
0.0013819844
2.5326204e-06
3.371289e-06
6.0617307e-06
1.2487421e-05
2.4593018e-05
4.2987257e-05
6.7474462e-05
9.8797812e-05
0.00014038632
0.00020163083
0.00030873381
0.00055367121
0.0013847362
2.7065544e-06
3.7399969e-06
6.9406287e-06
1.4157864e-05
2.6962172e-05
4.5608169e-05
6.9912765e-05
0.00010081055
0.00014189658
0.00020271014
0.00030955281
0.00055457137
0.0013875385
2.94855e-06
4.2087759e-06
7.9623501e-06
1.5942734e-05
2.9328091e-05
4.8116704e-05
7.2192972e-05
0.0001026631
0.00014328329
0.00020371266
0.00031034058
0.00055548595
0.0013903847
3.2717205e-06
4.7895532e-06
9.1242819e-06
1.7815986e-05
3.1665001e-05
5.0504533e-05
7.431848e-05
0.00010436656
0.00014455809
0.0002046458
0.0003110997
0.00055641259
0.0013932687
3.6900855e-06
5.4920726e-06
1.0417683e-05
1.9750012e-05
3.3951699e-05
5.2768183e-05
7.6289668e-05
0.00010593299
0.00014573089
0.00020551555
0.00031183197
0.00055734877
0.0013961839
4.2174844e-06
6.3224276e-06
1.1827951e-05
2.171714e-05
3.6170246e-05
5.4901159e-05
7.8113757e-05
0.00010737249
0.00014680993
0.00020632674
0.00031253851
0.00055829181
0.0013991243
4.8660257e-06
7.2817742e-06
1.3335593e-05
2.3691122e-05
3.8306687e-05
5.6898167e-05
7.9798304e-05
0.00010869389
0.00014780214
0.00020708321
0.00031321994
0.0005592389
0.0014020836
5.644249e-06
8.3655561e-06
1.4917865e-05
2.564878e-05
4.0344257e-05
5.8760206e-05
8.1350099e-05
0.00010990478
0.00014871321
0.00020778792
0.00031387635
0.00056018712
0.0014050556
6.5553589e-06
9.5634594e-06
1.6550685e-05
2.756532e-05
4.2272541e-05
6.0488807e-05
8.2775227e-05
0.00011101156
0.00014954783
0.00020844308
0.00031450744
0.00056113341
0.0014080338
7.596153e-06
1.0860441e-05
1.8207368e-05
2.9419101e-05
4.4084529e-05
6.2085813e-05
8.4079033e-05
0.0001120196
0.00015030968
0.00020905022
0.00031511248
0.00056207453
0.0014110119
8.7563148e-06
1.223555e-05
1.9861231e-05
3.1193216e-05
4.5774964e-05
6.355318e-05
8.5266111e-05
0.00011293328
0.00015100165
0.00020961023
0.00031569038
0.00056300711
0.0014139831
1.0017521e-05
1.3664334e-05
2.1488448e-05
3.2873858e-05
4.7340053e-05
6.4892866e-05
8.6340346e-05
0.00011375612
0.0001516258
0.00021012347
0.00031623966
0.00056392754
0.0014169405
1.13559e-05
1.512121e-05
2.3068171e-05
3.4450178e-05
4.8777288e-05
6.6106811e-05
8.7304983e-05
0.00011449085
0.00015218355
0.00021058974
0.00031675851
0.00056483203
0.0014198766
1.2744264e-05
1.658108e-05
2.4582902e-05
3.5914122e-05
5.0085354e-05
6.7196969e-05
8.8162737e-05
0.00011513953
0.00015267569
0.00021100842
0.00031724482
0.00056571652
0.0014227834
1.4154481e-05
1.8020636e-05
2.6018603e-05
3.7260264e-05
5.1264091e-05
6.8165412e-05
8.8915931e-05
0.0001157037
0.00015310253
0.00021137848
0.00031769616
0.00056657675
0.0014256524
1.555958e-05
1.9419301e-05
2.7364606e-05
3.8485597e-05
5.2314489e-05
6.9014449e-05
8.9566664e-05
0.0001161845
0.000153464
0.00021169859
0.00031810989
0.00056740822
0.0014284744
1.6935338e-05
2.0759786e-05
2.8613377e-05
3.9589303e-05
5.3238669e-05
6.9746756e-05
9.0116987e-05
0.00011658288
0.00015375982
0.00021196724
0.00031848323
0.00056820633
0.0014312396
1.8261268e-05
2.2028325e-05
2.9760206e-05
4.0572478e-05
5.4039842e-05
7.0365496e-05
9.0569077e-05
0.00011689975
0.00015398961
0.00021218284
0.00031881337
0.00056896639
0.0014339377
1.9521047e-05
2.3214635e-05
3.0802835e-05
4.1437841e-05
5.4722227e-05
7.0874392e-05
9.0925391e-05
0.00011713613
0.00015415307
0.0002123439
0.00031909759
0.00056968379
0.0014365579
2.0702516e-05
2.4311688e-05
3.1741086e-05
4.2189436e-05
5.5290938e-05
7.1277773e-05
9.1188791e-05
0.00011729337
0.00015425016
0.00021244916
0.00031933341
0.00057035412
0.0014390892
2.1797371e-05
2.5315354e-05
3.257649e-05
4.2832333e-05
5.5751829e-05
7.1580559e-05
9.1362627e-05
0.00011737319
0.0001542812
0.00021249774
0.00031951874
0.00057097333
0.0014415208
2.2800694e-05
2.6223984e-05
3.3311942e-05
4.3372363e-05
5.6111338e-05
7.178822e-05
9.1450779e-05
0.00011737787
0.00015424704
0.00021248927
0.00031965202
0.00057153791
0.0014438419
2.3710405e-05
2.7037978e-05
3.3951389e-05
4.3815875e-05
5.6376317e-05
7.1906693e-05
9.1457658e-05
0.00011731022
0.00015414912
0.00021242401
0.00031973234
0.00057204501
0.0014460427
2.4526703e-05
2.7759362e-05
3.4499556e-05
4.416953e-05
5.655387e-05
7.1942284e-05
9.1388171e-05
0.00011717368
0.00015398952
0.00021230292
0.00031975955
0.00057249258
0.001448114
2.5251563e-05
2.8391405e-05
3.4961708e-05
4.4440131e-05
5.6651213e-05
7.190156e-05
9.1247656e-05
0.00011697222
0.00015377099
0.00021212769
0.00031973428
0.00057287947
0.0014500481
2.5888279e-05
2.8938288e-05
3.5343456e-05
4.4634486e-05
5.6675546e-05
7.1791235e-05
9.1041803e-05
0.00011671034
0.00015349694
0.00021190076
0.00031965799
0.00057320543
0.0014518387
2.6441084e-05
2.9404818e-05
3.5650592e-05
4.4759303e-05
5.6633949e-05
7.1618067e-05
9.0776554e-05
0.00011639299
0.00015317136
0.00021162526
0.00031953294
0.00057347115
0.0014534809
2.6914836e-05
2.9796197e-05
3.5888958e-05
4.4821107e-05
5.6533305e-05
7.1388766e-05
9.0458012e-05
0.00011602548
0.00015279873
0.00021130497
0.00031936211
0.00057367824
0.001454972
2.7314772e-05
3.0117837e-05
3.6064346e-05
4.4826184e-05
5.6380236e-05
7.1109904e-05
9.0092342e-05
0.00011561335
0.00015238399
0.00021094419
0.00031914912
0.00057382907
0.0014563107
2.7646312e-05
3.0375212e-05
3.6182416e-05
4.4780537e-05
5.6181059e-05
7.0787857e-05
8.9685678e-05
0.00011516232
0.00015193234
0.00021054763
0.00031889811
0.00057392676
0.0014574976
2.7914913e-05
3.0573747e-05
3.6248645e-05
4.4689865e-05
5.5941755e-05
7.0428743e-05
8.9244048e-05
0.00011467816
0.0001514492
0.00021012034
0.00031861362
0.00057397497
0.0014585351
2.8125957e-05
3.0718741e-05
3.6268275e-05
4.4559538e-05
5.5667948e-05
7.0038382e-05
8.87733e-05
0.00011416656
0.00015094006
0.00020966751
0.00031830044
0.00057397782
0.0014594269
2.8284676e-05
3.0815303e-05
3.6246295e-05
4.4394597e-05
5.5364901e-05
6.9622268e-05
8.8279045e-05
0.00011363314
0.00015041038
0.00020919438
0.0003179635
0.00057393972
0.0014601782
2.8396094e-05
3.0868315e-05
3.6187416e-05
4.4199749e-05
5.5037507e-05
6.9185544e-05
8.7766606e-05
0.00011308328
0.00014986552
0.00020870617
0.00031760772
0.00057386525
0.0014607952
2.8464994e-05
3.0882401e-05
3.6096063e-05
4.3979371e-05
5.4690297e-05
6.873299e-05
8.7240989e-05
0.0001125221
0.00014931062
0.00020820791
0.00031723791
0.00057375902
0.0014612853
2.849589e-05
3.0861918e-05
3.5976376e-05
4.3737517e-05
5.4327442e-05
6.826902e-05
8.6706848e-05
0.00011195444
0.00014875054
0.0002077044
0.0003168587
0.00057362558
0.0014616562
2.8493024e-05
3.0810945e-05
3.5832204e-05
4.3477925e-05
5.3952767e-05
6.7797681e-05
8.6168476e-05
0.00011138476
0.00014818984
0.00020720014
0.00031647441
0.00057346934
0.0014619166
2.8460352e-05
3.0733282e-05
3.5667118e-05
4.3204033e-05
5.356976e-05
6.7322655e-05
8.5629792e-05
0.00011081716
0.0001476327
0.00020669925
0.00031608907
0.00057329446
0.001462075
2.8401556e-05
3.0632455e-05
3.5484412e-05
4.2918984e-05
5.3181587e-05
6.6847274e-05
8.5094338e-05
0.00011025537
0.00014708291
0.00020620548
0.00031570629
0.00057310486
0.0014621403
2.8320042e-05
3.0511725e-05
3.5287116e-05
4.2625648e-05
5.2791106e-05
6.6374523e-05
8.4565288e-05
0.00010970271
0.00014654385
0.00020572216
0.00031532932
0.00057290413
0.0014621216
2.8218951e-05
3.0374092e-05
3.5078007e-05
4.2326625e-05
5.2400884e-05
6.5907062e-05
8.4045451e-05
0.00010916211
0.00014601849
0.0002052522
0.00031496098
0.00057269554
0.0014620274
2.8101171e-05
3.0222309e-05
3.4859618e-05
4.2024269e-05
5.201321e-05
6.5447238e-05
8.3537287e-05
0.00010863612
0.00014550941
0.00020479807
0.00031460369
0.00057248199
0.0014618664
2.796935e-05
3.0058895e-05
3.4634255e-05
4.1720694e-05
5.1630113e-05
6.4997101e-05
8.3042923e-05
0.00010812694
0.00014501876
0.00020436185
0.00031425946
0.00057226608
0.0014616466
2.7825902e-05
2.9886143e-05
3.4404002e-05
4.1417794e-05
5.1253378e-05
6.4558424e-05
8.2564167e-05
0.00010763639
0.00014454834
0.00020394522
0.00031392994
0.00057205004
0.001461376
2.7673027e-05
2.9706137e-05
3.4170743e-05
4.1117252e-05
5.0884562e-05
6.4132718e-05
8.2102531e-05
0.00010716596
0.00014409957
0.00020354948
0.00031361638
0.00057183574
0.0014610619
2.7512721e-05
2.952076e-05
3.3936165e-05
4.0820556e-05
5.0525008e-05
6.3721253e-05
8.165925e-05
0.00010671686
0.00014367355
0.00020317562
0.00031331981
0.00057162453
0.0014607109
2.7346789e-05
2.9331713e-05
3.3701777e-05
4.0529013e-05
5.0175864e-05
6.3325077e-05
8.1235303e-05
0.00010628996
0.00014327105
0.00020282426
0.00031304075
0.00057141649
0.0014603285
2.7176855e-05
2.9140519e-05
3.3468921e-05
4.024376e-05
4.9838095e-05
6.2945032e-05
8.0831436e-05
0.00010588594
0.00014289263
0.00020249591
0.00031277958
0.00057120938
0.0014599198
2.700438e-05
2.8948543e-05
3.3238781e-05
3.9965778e-05
4.95125e-05
6.258177e-05
8.0448182e-05
0.00010550518
0.0001425385
0.00020219045
0.00031253538
0.00057100478
0.0014594899
2.6830668e-05
2.8756996e-05
3.3012396e-05
3.9695902e-05
4.9199725e-05
6.2235779e-05
8.0085898e-05
0.00010514794
0.00014220886
0.00020190801
0.00031230613
0.00057080575
0.001459044
2.6656883e-05
2.8566952e-05
3.2790672e-05
3.9434838e-05
4.8900277e-05
6.1907398e-05
7.9744769e-05
0.00010481423
0.00014190343
0.00020164697
0.00031209273
0.00057061388
0.0014585871
2.6484053e-05
2.8379356e-05
3.2574391e-05
3.9183166e-05
4.8614539e-05
6.1596822e-05
7.9424813e-05
0.00010450388
0.00014162169
0.00020140636
0.00031189569
0.00057043033
0.0014581237
2.6313086e-05
2.8195035e-05
3.2364222e-05
3.8941363e-05
4.8342784e-05
6.1304143e-05
7.9125966e-05
0.00010421665
0.00014136218
0.00020118617
0.00031171512
0.0005702559
0.0014576578
2.6144776e-05
2.8014705e-05
3.2160731e-05
3.87098e-05
4.8085185e-05
6.1029338e-05
7.8847981e-05
0.00010395151
0.00014112443
0.00020098609
0.00031155087
0.00057009108
0.0014571928
2.5979816e-05
2.7838984e-05
3.1964389e-05
3.8488763e-05
4.7841822e-05
6.0772273e-05
7.8590331e-05
0.00010370763
0.00014090796
0.00020080562
0.00031140259
0.00056993614
0.001456732
2.5818803e-05
2.76684e-05
3.1775584e-05
3.8278457e-05
4.7612706e-05
6.0532705e-05
7.8352155e-05
0.00010348449
0.00014071215
0.00020064413
0.00031126976
0.00056979117
0.001456278
2.5662251e-05
2.7503399e-05
3.1594633e-05
3.8079035e-05
4.7397759e-05
6.0309961e-05
7.8132966e-05
0.00010328148
0.00014053629
0.00020050087
0.00031115178
0.00056965611
0.0014558332
2.55106e-05
2.7344362e-05
3.1421801e-05
3.7890537e-05
4.7196578e-05
6.0103648e-05
7.7932215e-05
0.00010309789
0.00014037958
0.000200375
0.00031104794
0.00056953078
0.0014553994
2.5364229e-05
2.7191606e-05
3.1257215e-05
3.7712814e-05
4.7008903e-05
5.9913333e-05
7.7749301e-05
0.000102933
0.00014024116
0.00020026566
0.00031095752
0.00056941493
0.0014549783
2.5223417e-05
2.7045323e-05
3.1100917e-05
3.7545752e-05
4.6834443e-05
5.9738542e-05
7.7583577e-05
0.00010278599
0.00014012013
0.00020017191
0.00031087973
0.00056930827
0.0014545712
2.5088367e-05
2.6905647e-05
3.0952918e-05
3.7389205e-05
4.6672872e-05
5.9578766e-05
7.743436e-05
0.00010265603
0.00014001555
0.00020009281
0.00031081379
0.00056921049
0.0014541791
2.495923e-05
2.6772668e-05
3.081319e-05
3.7242992e-05
4.6523835e-05
5.9433468e-05
7.7300939e-05
0.00010254227
0.00013992648
0.00020002743
0.00031075891
0.00056912127
0.0014538028
2.4836108e-05
2.6646436e-05
3.0681672e-05
3.7106904e-05
4.638695e-05
5.9302085e-05
7.718258e-05
0.00010244384
0.00013985196
0.00019997482
0.00031071434
0.00056904026
0.001453443
2.4719068e-05
2.6526963e-05
3.0558273e-05
3.6980703e-05
4.6261811e-05
5.9184035e-05
7.7078536e-05
0.00010235984
0.00013979104
0.00019993405
0.0003106793
0.00056896714
0.0014531002
2.4608138e-05
2.641423e-05
3.044287e-05
3.6864128e-05
4.614799e-05
5.9078717e-05
7.6988047e-05
0.00010228941
0.00013974277
0.0001999042
0.00031065306
0.00056890154
0.0014527748
2.4503316e-05
2.6308186e-05
3.0335317e-05
3.6756895e-05
4.6045044e-05
5.8985521e-05
7.6910347e-05
0.00010223165
0.00013970621
0.00019988438
0.00031063489
0.00056884309
0.0014524671
2.4404571e-05
2.6208755e-05
3.0235441e-05
3.6658701e-05
4.5952514e-05
5.8903827e-05
7.684467e-05
0.00010218569
0.00013968044
0.00019987372
0.00031062407
0.0005687914
0.0014521772
2.4311846e-05
2.6115836e-05
3.014305e-05
3.6569224e-05
4.5869929e-05
5.8833009e-05
7.6790253e-05
0.00010215067
0.00013966457
0.00019987136
0.0003106199
0.00056874605
0.0014519051
2.4225058e-05
2.6029305e-05
3.0057933e-05
3.6488133e-05
4.5796811e-05
5.8772442e-05
7.6746341e-05
0.00010212574
0.00013965772
0.00019987648
0.00031062173
0.00056870662
0.0014516506
2.4144108e-05
2.594902e-05
2.9979863e-05
3.641508e-05
4.5732677e-05
5.8721503e-05
7.671219e-05
0.00010211009
0.00013965906
0.00019988831
0.0003106289
0.00056867269
0.0014514134
2.4068874e-05
2.5874822e-05
2.9908599e-05
3.6349713e-05
4.5677042e-05
5.8679575e-05
7.6687073e-05
0.00010210291
0.00013966778
0.00019990611
0.00031064083
0.00056864387
0.0014511933
2.3999221e-05
2.5806537e-05
2.9843889e-05
3.6291671e-05
4.5629421e-05
5.864605e-05
7.6670281e-05
0.00010210344
0.00013968311
0.00019992918
0.00031065696
0.00056861981
0.0014509896
2.3934996e-05
2.5743977e-05
2.9785472e-05
3.6240591e-05
4.5589332e-05
5.8620331e-05
7.6661126e-05
0.00010211094
0.00013970433
0.00019995686
0.00031067678
0.00056860017
0.0014508019
2.3876038e-05
2.5686946e-05
2.9733079e-05
3.6196105e-05
4.5556298e-05
5.8601836e-05
7.6658943e-05
0.00010212471
0.00013973074
0.00019998856
0.00031069982
0.00056858467
0.0014506297
2.3822171e-05
2.5635235e-05
2.9686436e-05
3.6157848e-05
4.5529849e-05
5.8589997e-05
7.6663092e-05
0.00010214408
0.00013976171
0.00020002371
0.00031072565
0.00056857303
0.0014504726
2.3773212e-05
2.5588631e-05
2.9645264e-05
3.6125453e-05
4.5509523e-05
5.8584261e-05
7.6672957e-05
0.0001021684
0.00013979661
0.00020006177
0.00031075387
0.00056856497
0.0014503299
2.372897e-05
2.5546912e-05
2.9609282e-05
3.6098558e-05
4.5494866e-05
5.8584094e-05
7.6687945e-05
0.00010219707
0.00013983488
0.00020010225
0.00031078409
0.00056856023
0.0014502012
2.3689248e-05
2.5509854e-05
2.9578208e-05
3.6076804e-05
4.5485435e-05
5.8588979e-05
7.6707493e-05
0.00010222952
0.00013987597
0.00020014467
0.00031081593
0.0005685585
0.001450086
2.3653843e-05
2.5477228e-05
2.9551758e-05
3.6059836e-05
4.54808e-05
5.8598419e-05
7.673106e-05
0.00010226519
0.00013991936
0.0002001886
0.00031084904
0.00056855949
0.0014499836
2.362255e-05
2.5448802e-05
2.9529652e-05
3.6047306e-05
4.5480543e-05
5.8611935e-05
7.6758135e-05
0.00010230358
0.00013996459
0.00020023364
0.0003108831
0.0005685629
0.0014498935
2.3595159e-05
2.5424346e-05
2.9511611e-05
3.6038876e-05
4.5484261e-05
5.8629073e-05
7.6788234e-05
0.00010234421
0.00014001122
0.0002002794
0.0003109178
0.00056856842
0.0014498149
2.3571462e-05
2.5403628e-05
2.9497362e-05
3.6034213e-05
4.5491564e-05
5.8649398e-05
7.6820902e-05
0.00010238663
0.00014005884
0.00020032555
0.00031095285
0.0005685758
0.0014497472
2.3551249e-05
2.5386418e-05
2.9486633e-05
3.6032999e-05
4.5502082e-05
5.8672501e-05
7.6855715e-05
0.00010243043
0.00014010709
0.00020037179
0.00031098804
0.0005685848
0.0014496895
2.3534311e-05
2.537249e-05
2.9479162e-05
3.6034923e-05
4.551546e-05
5.8697995e-05
7.6892276e-05
0.00010247524
0.00014015563
0.00020041785
0.00031102317
0.00056859525
0.0014496412
2.3520443e-05
2.5361621e-05
2.9474693e-05
3.6039686e-05
4.553136e-05
5.8725517e-05
7.6930219e-05
0.00010252071
0.00014020418
0.00020046351
0.00031105805
0.00056860699
0.0014496017
2.3509441e-05
2.5353591e-05
2.9472975e-05
3.6047003e-05
4.5549463e-05
5.8754725e-05
7.6969204e-05
0.00010256653
0.00014025246
0.00020050856
0.00031109256
0.0005686199
0.0014495703
2.3501103e-05
2.5348186e-05
2.9473768e-05
3.60566e-05
4.5569465e-05
5.8785302e-05
7.7008916e-05
0.00010261242
0.00014030023
0.00020055282
0.00031112657
0.00056863387
0.0014495465
2.3495234e-05
2.5345195e-05
2.9476837e-05
3.6068215e-05
4.559108e-05
5.881695e-05
7.7049066e-05
0.0001026581
0.00014034729
0.00020059613
0.00031115995
0.00056864878
0.0014495299
2.349164e-05
2.5344417e-05
2.9481958e-05
3.6081597e-05
4.5614039e-05
5.8849392e-05
7.7089386e-05
0.00010270334
0.00014039343
0.00020063833
0.00031119259
0.00056866448
0.00144952
2.3490134e-05
2.5345652e-05
2.9488914e-05
3.6096509e-05
4.5638088e-05
5.888237e-05
7.7129632e-05
0.00010274793
0.00014043847
0.00020067928
0.00031122437
0.00056868081
0.0014495165
2.3490532e-05
2.5348709e-05
2.9497497e-05
3.6112725e-05
4.5662988e-05
5.8915645e-05
7.716958e-05
0.00010279166
0.00014048226
0.00020071887
0.00031125517
0.00056869757
0.0014495187
2.3492659e-05
2.5353404e-05
2.9507509e-05
3.6130033e-05
4.5688519e-05
5.8948999e-05
7.7209025e-05
0.00010283437
0.00014052466
0.00020075698
0.00031128487
0.00056871457
0.0014495261
2.3496343e-05
2.535956e-05
2.9518761e-05
3.6148233e-05
4.5714474e-05
5.8982232e-05
7.7247787e-05
0.0001028759
0.00014056554
0.00020079351
0.00031131337
0.00056873161
0.0014495382
2.350142e-05
2.5367007e-05
2.9531075e-05
3.6167138e-05
4.5740667e-05
5.9015162e-05
7.7285705e-05
0.00010291612
0.00014060481
0.00020082839
0.00031134059
0.00056874851
0.0014495544
2.3507735e-05
2.5375584e-05
2.9544282e-05
3.6186574e-05
4.5766924e-05
5.9047631e-05
7.732264e-05
0.00010295492
0.00014064239
0.00020086157
0.00031136649
0.00056876516
0.001449574
2.3515137e-05
2.538514e-05
2.9558227e-05
3.6206383e-05
4.579309e-05
5.9079495e-05
7.7358473e-05
0.00010299221
0.00014067822
0.00020089303
0.00031139104
0.00056878147
0.0014495964
2.3523487e-05
2.5395531e-05
2.9572762e-05
3.6226419e-05
4.5819026e-05
5.9110631e-05
7.7393108e-05
0.00010302793
0.00014071229
0.00020092275
0.00031141425
0.0005687974
0.0014496212
2.3532651e-05
2.5406622e-05
2.9587752e-05
3.6246548e-05
4.5844609e-05
5.9140934e-05
7.7426462e-05
0.00010306203
0.00014074456
0.00020095076
0.00031143615
0.00056881297
0.0014496478
2.3542505e-05
2.5418289e-05
2.9603072e-05
3.626665e-05
4.5869728e-05
5.9170313e-05
7.7458474e-05
0.00010309447
0.00014077504
0.00020097708
0.00031145679
0.00056882811
0.001449676
2.3552931e-05
2.5430413e-05
2.9618607e-05
3.6286615e-05
4.5894287e-05
5.9198691e-05
7.7489091e-05
0.00010312525
0.00014080375
0.00020100175
0.00031147619
0.00056884264
0.0014497054
2.3563819e-05
2.5442887e-05
2.9634251e-05
3.6306346e-05
4.5918201e-05
5.9226003e-05
7.7518276e-05
0.00010315434
0.00014083069
0.0002010248
0.00031149436
0.00056885654
0.0014497358
2.3575067e-05
2.5455609e-05
2.9649907e-05
3.6325753e-05
4.5941396e-05
5.9252196e-05
7.7546e-05
0.00010318174
0.00014085589
0.00020104626
0.00031151116
0.00056886995
0.0014497672
2.3586579e-05
2.5468485e-05
2.9665486e-05
3.6344756e-05
4.5963808e-05
5.9277226e-05
7.7572242e-05
0.00010320746
0.00014087936
0.00020106609
0.00031152662
0.00056888296
0.0014497994
2.3598265e-05
2.5481428e-05
2.9680906e-05
3.6363286e-05
4.598538e-05
5.9301057e-05
7.759699e-05
0.0001032315
0.00014090113
0.00020108424
0.00031154085
0.00056889556
0.0014498325
2.3610043e-05
2.5494358e-05
2.9696094e-05
3.6381278e-05
4.6006066e-05
5.9323664e-05
7.7620241e-05
0.00010325389
0.00014092115
0.00020110076
0.00031155386
0.00056890771
0.0014498661
2.3621836e-05
2.5507201e-05
2.9710982e-05
3.6398677e-05
4.6025827e-05
5.9345026e-05
7.7641993e-05
0.00010327462
0.00014093944
0.00020111572
0.0003115657
0.00056891933
0.0014499002
2.3633575e-05
2.5519891e-05
2.9725513e-05
3.6415438e-05
4.6044634e-05
5.9365137e-05
7.7662264e-05
0.00010329367
0.00014095604
0.00020112918
0.00031157638
0.00056893035
0.0014499344
2.3645194e-05
2.5532367e-05
2.9739633e-05
3.6431523e-05
4.6062468e-05
5.9383998e-05
7.7681031e-05
0.00010331108
0.00014097103
0.00020114118
0.00031158593
0.0005689407
0.0014499684
2.365664e-05
2.5544578e-05
2.9753301e-05
3.6446901e-05
4.6079319e-05
5.9401598e-05
7.7698313e-05
0.0001033269
0.00014098446
0.0002011518
0.00031159439
0.00056895032
0.001450002
2.3667861e-05
2.5556477e-05
2.9766479e-05
3.6461553e-05
4.6095171e-05
5.9417936e-05
7.7714148e-05
0.0001033412
0.00014099641
0.00020116111
0.00031160179
0.0005689592
0.0014500347
2.3678815e-05
2.5568027e-05
2.9779142e-05
3.6475457e-05
4.6110017e-05
5.9433035e-05
7.7728583e-05
0.00010335404
0.00014100695
0.00020116918
0.00031160821
0.00056896735
0.0014500664
2.3689468e-05
2.5579197e-05
2.979126e-05
3.6488599e-05
4.6123862e-05
5.9446926e-05
7.7741671e-05
0.0001033655
0.00014101618
0.00020117611
0.00031161373
0.00056897481
0.0014500968
2.3699786e-05
2.5589956e-05
2.9802815e-05
3.6500971e-05
4.6136722e-05
5.9459646e-05
7.7753469e-05
0.00010337563
0.00014102418
0.00020118197
0.00031161842
0.00056898167
0.0014501258
2.3709742e-05
2.5600281e-05
2.981379e-05
3.6512577e-05
4.6148617e-05
5.9471235e-05
7.7764038e-05
0.00010338454
0.00014103102
0.00020118687
0.00031162239
0.00056898799
0.0014501534
2.3719312e-05
2.5610153e-05
2.9824178e-05
3.6523421e-05
4.6159573e-05
5.9481737e-05
7.7773441e-05
0.00010339227
0.0001410368
0.00020119089
0.00031162572
0.00056899389
0.0014501795
2.3728479e-05
2.5619558e-05
2.9833976e-05
3.6533514e-05
4.6169616e-05
5.94912e-05
7.7781738e-05
0.00010339893
0.0001410416
0.00020119411
0.00031162848
0.00056899943
0.0014502044
2.3737227e-05
2.5628488e-05
2.9843182e-05
3.6542871e-05
4.6178778e-05
5.9499671e-05
7.7788993e-05
0.00010340456
0.00014104549
0.0002011966
0.00031163074
0.00056900468
0.0014502281
2.3745546e-05
2.5636934e-05
2.98518e-05
3.6551508e-05
4.618709e-05
5.9507194e-05
7.7795263e-05
0.00010340925
0.00014104854
0.00020119841
0.00031163255
0.00056900967
0.0014502508
2.3753428e-05
2.5644895e-05
2.9859836e-05
3.6559443e-05
4.6194584e-05
5.9513818e-05
7.7800606e-05
0.00010341304
0.0001410508
0.00020119961
0.00031163392
0.0005690144
0.0014502726
2.3760867e-05
2.5652368e-05
2.9867298e-05
3.6566695e-05
4.6201293e-05
5.9519587e-05
7.7805075e-05
0.00010341601
0.00014105234
0.00020120022
0.00031163488
0.00056901886
0.0014502936
2.3767861e-05
2.5659356e-05
2.9874195e-05
3.6573285e-05
4.6207251e-05
5.9524545e-05
7.7808724e-05
0.0001034182
0.00014105319
0.00020120028
0.00031163544
0.00056902299
0.0014503138
2.377441e-05
2.5665862e-05
2.9880538e-05
3.6579235e-05
4.621249e-05
5.9528737e-05
7.7811603e-05
0.00010341967
0.00014105342
0.00020119983
0.00031163559
0.00056902674