/*--------------------------------*- C++ -*----------------------------------*\
| =========                 |                                                 |
| \\      /  F ield         | OpenFOAM: The Open Source CFD Toolbox           |
|  \\    /   O peration     | Version:  2506                                  |
|   \\  /    A nd           | Website:  www.openfoam.com                      |
|    \\/     M anipulation  |                                                 |
\*---------------------------------------------------------------------------*/
FoamFile
{
    version     2.0;
    format      ascii;
    arch        "LSB;label=32;scalar=64";
    class       volScalarField;
    location    "6000/water";
    object      k;
}
// * * * * * * * * * * * * * * * * * * * * * * * * * * * * * * * * * * * * * //

dimensions      [0 2 -2 0 0 0 0];

internalField   nonuniform List<scalar> 
2600
(
0.0001992401
0.00019923925
0.00019923929
0.00019923963
0.00019923982
0.00019923914
0.00019923438
0.00019921375
0.00019914651
0.00019904325
0.00019990841
0.00021454267
0.00040955349
0.00017237279
0.00017237614
0.00017237826
0.00017238051
0.0001723821
0.00017237949
0.00017235884
0.00017227555
0.000172027
0.00017162102
0.00017329371
0.00020304806
0.00052391648
0.00015132731
0.00015133049
0.00015133306
0.00015133552
0.00015133516
0.00015132207
0.00015126283
0.00015106462
0.00015055477
0.00014985944
0.0001528957
0.00019760629
0.00057958156
0.00013448336
0.00013448533
0.00013448764
0.00013448905
0.00013448325
0.00013445009
0.00013432997
0.00013398205
0.00013321503
0.00013247936
0.00013787909
0.00019702317
0.00059640815
0.00012075551
0.00012075697
0.00012075853
0.00012075718
0.00012074152
0.0001206782
0.00012048052
0.00011997843
0.0001190486
0.00011870929
0.00012776334
0.00020116854
0.00059206885
0.0001093899
0.00010939088
0.000109391
0.00010938492
0.00010935483
0.00010925313
0.00010897207
0.00010834649
0.00010742643
0.0001080609
0.00012226457
0.00021023394
0.00057809221
9.984982e-05
9.9850093e-05
9.9847944e-05
9.9835056e-05
9.9786463e-05
9.9641865e-05
9.9284958e-05
9.859999e-05
9.7925044e-05
0.00010022517
0.00012123091
0.00022425603
0.00056106272
9.1744874e-05
9.174416e-05
9.1738826e-05
9.1717148e-05
9.1647174e-05
9.1460104e-05
9.1049018e-05
9.0398665e-05
9.0258419e-05
9.5030413e-05
0.00012461431
0.00024286356
0.00054449405
8.4785472e-05
8.4783454e-05
8.4774018e-05
8.4741918e-05
8.4649457e-05
8.4426122e-05
8.3996574e-05
8.3502376e-05
8.4241543e-05
9.2421343e-05
0.00013239492
0.00026511347
0.00053012765
7.8752977e-05
7.8749319e-05
7.8734951e-05
7.8691403e-05
7.8577619e-05
7.8330528e-05
7.7932172e-05
7.7743318e-05
7.9771153e-05
9.2438123e-05
0.00014444361
0.00028951151
0.0005186607
7.3479682e-05
7.3474066e-05
7.3454131e-05
7.3398964e-05
7.3267704e-05
7.3016085e-05
7.2712929e-05
7.3009357e-05
7.6815021e-05
9.5182833e-05
0.00016036324
0.00031428525
0.00051014247
6.8835097e-05
6.8827266e-05
6.8801436e-05
6.8735571e-05
6.8593744e-05
6.836405e-05
6.8235745e-05
6.9234209e-05
7.5403716e-05
0.00010076472
0.00017939076
0.00033780739
0.0005042266
6.4716374e-05
6.4706175e-05
6.4674551e-05
6.4600233e-05
6.4458202e-05
6.4284863e-05
6.4429045e-05
6.6391811e-05
7.5619872e-05
0.0001092241
0.00020043528
0.00035894529
0.00050037283
6.1041501e-05
6.1028932e-05
6.0992164e-05
6.091321e-05
6.0785257e-05
6.0711783e-05
6.1247563e-05
6.4493003e-05
7.7580807e-05
0.00012045028
0.00022225715
0.00037717552
0.0004980107
5.7744396e-05
5.7729653e-05
5.7689074e-05
5.7611142e-05
5.751606e-05
5.7596592e-05
5.8669223e-05
6.3582872e-05
8.1411587e-05
0.00013412437
0.00024370832
0.00039247762
0.00049664628
5.4771313e-05
5.4754847e-05
5.4712615e-05
5.4643526e-05
5.4605384e-05
5.4906753e-05
5.6693486e-05
6.3736861e-05
8.7208043e-05
0.00014971788
0.00026392364
0.00040513366
0.00049590625
5.2078186e-05
5.206076e-05
5.2020025e-05
5.1970154e-05
5.2019282e-05
5.2623661e-05
5.5340604e-05
6.5053658e-05
9.4994185e-05
0.00016655656
0.0002823955
0.00041554871
0.00049553614
4.9628636e-05
4.9611393e-05
4.9576492e-05
4.9559258e-05
4.9733503e-05
5.0741692e-05
5.4651195e-05
6.7643172e-05
0.00010468473
0.00018392817
0.00029893687
0.00042413794
0.00049537652
4.7392458e-05
4.7377004e-05
4.7353699e-05
4.7386176e-05
4.773248e-05
4.9267885e-05
5.4685329e-05
7.1608743e-05
0.00011606686
0.00020119288
0.00031358495
0.0004312733
0.0004953351
4.5344476e-05
4.5332971e-05
4.5328746e-05
4.5432431e-05
4.600877e-05
4.8222045e-05
5.5520138e-05
7.7024461e-05
0.0001288111
0.00021785898
0.00032650009
0.00043726613
0.00049536294
4.3463657e-05
4.3458933e-05
4.3483358e-05
4.3685127e-05
4.4562868e-05
4.7637065e-05
5.7244887e-05
8.3911106e-05
0.00014251076
0.00023360813
0.00033789056
0.00044236711
0.00049543702
4.1732429e-05
4.173814e-05
4.1803329e-05
4.2136614e-05
4.3403329e-05
4.7559127e-05
5.9952699e-05
9.2216773e-05
0.00015673762
0.00024827797
0.00034796834
0.00044677301
0.00049554866
4.0136167e-05
4.015697e-05
4.0278148e-05
4.0784372e-05
4.2547129e-05
4.8047288e-05
6.3728701e-05
0.00010180889
0.00017109624
0.00026182258
0.0003569282
0.00045063571
0.00049569617
3.8662802e-05
3.8704582e-05
3.8900797e-05
3.9631107e-05
4.2020194e-05
4.9171841e-05
6.8635431e-05
0.00011248166
0.0001852623
0.00027427018
0.00036494028
0.00045407114
0.00049588069
3.7302531e-05
3.7372692e-05
3.7667676e-05
3.8685008e-05
4.1857944e-05
5.1010816e-05
7.4697747e-05
0.00012397798
0.00019899861
0.00028568912
0.00037214923
0.00045716736
0.00049610392
3.6047628e-05
3.6155447e-05
3.6578682e-05
3.7960181e-05
4.2105652e-05
5.3644138e-05
8.1890767e-05
0.00013601989
0.00021215193
0.00029616534
0.00037867608
0.00045999117
0.00049636709
3.4892327e-05
3.5049398e-05
3.5637398e-05
3.7477201e-05
4.2818254e-05
5.7145345e-05
9.013449e-05
0.00014833915
0.00022463802
0.00030578893
0.00038462123
0.0004625934
0.00049667064
3.383279e-05
3.4053569e-05
3.4851411e-05
3.7263736e-05
4.4059204e-05
6.1571463e-05
9.9297382e-05
0.00016070076
0.00023642316
0.00031464714
0.00039006764
0.00046501299
0.00049701416
3.2867148e-05
3.316962e-05
3.4232755e-05
3.7355162e-05
4.589791e-05
6.6952453e-05
0.00010920861
0.0001729158
0.00024750738
0.00032282078
0.00039508379
0.00046727996
0.00049739654
3.1995627e-05
3.2402111e-05
3.3798454e-05
3.7794962e-05
4.8405428e-05
7.3282438e-05
0.00011967597
0.00018484396
0.00025791153
0.00033038288
0.00039972633
0.00046941774
0.00049781615
3.1220754e-05
3.1758868e-05
3.3571166e-05
3.8634689e-05
5.1648301e-05
8.0515037e-05
0.00013050501
0.00019638897
0.00026766839
0.00033739836
0.00040404224
0.00047144508
0.00049827105
3.0547674e-05
3.1251458e-05
3.3579859e-05
3.9933128e-05
5.5680957e-05
8.8564415e-05
0.00014151527
0.0002074904
0.00027681665
0.00034392427
0.00040806987
0.00047336165
0.00049875826
2.9984563e-05
3.0895779e-05
3.3860462e-05
4.1754323e-05
6.0537585e-05
9.7312153e-05
0.00015255089
0.00021811501
0.00028539699
0.00035000997
0.00041183983
0.00047517683
0.00049927448
2.9543172e-05
3.071274e-05
3.4456304e-05
4.4164151e-05
6.6225007e-05
0.00010661843
0.0001634853
0.00022824915
0.00029345001
0.00035569879
0.00041537498
0.00047690098
0.00049981638
2.9239498e-05
3.072904e-05
3.5418149e-05
4.7225365e-05
7.2718217e-05
0.00011633497
0.00017422102
0.00023789273
0.00030101459
0.00036102773
0.000418694
0.00047854313
0.00050038114
2.9094595e-05
3.0977952e-05
3.6803502e-05
5.0991335e-05
7.9959884e-05
0.00012631696
0.00018468652
0.00024705469
0.00030812684
0.00036602759
0.00042181619
0.00048011509
0.00050096676
2.9135496e-05
3.1500046e-05
3.8674861e-05
5.5499189e-05
8.7864166e-05
0.00013643209
0.00019483195
0.00025575014
0.00031482084
0.00037072328
0.00042475508
0.00048162854
0.00050157201
2.9396231e-05
3.2343669e-05
4.1096631e-05
6.0763504e-05
9.6324072e-05
0.00014656574
0.00020462431
0.0002639967
0.00032112526
0.00037513787
0.00042753007
0.00048308916
0.00050219529
2.991884e-05
3.3564908e-05
4.4130584e-05
6.6771883e-05
0.00010522078
0.00015662302
0.00021404417
0.00027181504
0.00032706606
0.00037928746
0.00043015897
0.00048450265
0.00050283511
3.075424e-05
3.5226723e-05
4.7830031e-05
7.3483551e-05
0.00011443287
0.00016652783
0.00022308101
0.00027922363
0.00033266467
0.00038319522
0.00043265449
0.00048587307
0.00050348988
3.1962693e-05
3.739684e-05
5.2233345e-05
8.0831453e-05
0.00012384408
0.00017622136
0.00023173237
0.00028624169
0.00033793722
0.00038688252
0.00043502773
0.00048720352
0.00050415803
3.3613502e-05
4.0144088e-05
5.7357846e-05
8.8727391e-05
0.00013334836
0.00018565851
0.00023999854
0.00029288457
0.00034290599
0.00039036649
0.00043728791
0.00048849634
0.00050483797
3.5783405e-05
4.3533072e-05
6.3195309e-05
9.7069231e-05
0.00014285306
0.00019480683
0.00024788468
0.00029916231
0.0003475933
0.00039366187
0.00043944269
0.00048975325
0.00050552812
3.8553067e-05
4.7617433e-05
6.9710117e-05
0.00010574827
0.00015227865
0.00020364078
0.00025539329
0.00030509328
0.00035201758
0.00039678117
0.00044149842
0.00049097544
0.00050622692
4.2001155e-05
5.2432564e-05
7.6840722e-05
0.00011465641
0.00016156001
0.00021214494
0.00026252193
0.00031069682
0.00035619499
0.00039973504
0.0004434603
0.00049216367
0.00050693283
4.619592e-05
5.7988964e-05
8.4503817e-05
0.00012369061
0.00017064178
0.00022029901
0.00026928194
0.00031598928
0.00036013925
0.00040253238
0.00044533252
0.00049331826
0.00050764432
5.1185017e-05
6.4267712e-05
9.2600636e-05
0.00013275649
0.00017947939
0.00022808588
0.0002756847
0.00032098502
0.00036386201
0.00040518056
0.00044711836
0.00049443921
0.00050835988
5.6985357e-05
7.1219288e-05
0.00010102457
0.00014177165
0.00018802207
0.00023550303
0.0002817403
0.00032569629
0.00036737303
0.00040768555
0.00044882025
0.00049552614
0.000509078
6.3575472e-05
7.8766075e-05
0.00010966807
0.00015065101
0.000196237
0.00024254864
0.00028745745
0.0003301333
0.00037068023
0.00041005204
0.00045043987
0.00049657836
0.00050979712
7.0893476e-05
8.6809018e-05
0.00011841799
0.00015932163
0.00020409989
0.00024922138
0.00029284335
0.00033430426
0.00037378984
0.00041228347
0.00045197811
0.00049759483
0.00051051571
7.8838252e-05
9.5225367e-05
0.00012716547
0.00016772588
0.00021159052
0.00025551998
0.00029790357
0.00033821554
0.00037670647
0.00041438213
0.00045343518
0.00049857418
0.00051123214
8.7271734e-05
0.00010388137
0.00013581416
0.00017581506
0.00021869191
0.00026144296
0.00030264213
0.00034187167
0.00037943324
0.00041634918
0.00045481054
0.00049951469
0.00051194472
9.6036175e-05
0.00011264288
0.00014427884
0.0001835485
0.00022538998
0.00026698861
0.00030706159
0.00034527555
0.00038197181
0.00041818477
0.00045610303
0.00050041431
0.00051265169
0.00010496809
0.00012138217
0.00015248587
0.000190893
0.00023167333
0.00027215516
0.00031116331
0.00034842865
0.0003843226
0.00041988807
0.00045731082
0.00050127064
0.00051335112
0.00011391057
0.00012998321
0.00016037324
0.00019782234
0.00023753332
0.00027694107
0.0003149478
0.00035133128
0.00038648497
0.00042145742
0.00045843153
0.00050208095
0.00051404099
0.00012272246
0.00013834516
0.00016789033
0.00020431693
0.00024296422
0.0002813455
0.00031841514
0.00035398294
0.00038845745
0.00042289051
0.00045946231
0.00050284226
0.00051471911
0.00013128386
0.00014638426
0.00017499752
0.00021036344
0.00024796339
0.00028536873
0.00032156549
0.00035638277
0.00039023806
0.00042418454
0.00046039996
0.00050355139
0.00051538315
0.0001394984
0.00015403427
0.00018166557
0.0002159544
0.0002525314
0.0002890126
0.00032439958
0.00035852993
0.00039182469
0.00042533654
0.00046124115
0.00050420508
0.00051603066
0.00014729303
0.00016124581
0.00018787481
0.00022108781
0.00025667209
0.00029228083
0.00032691918
0.00036042413
0.00039321545
0.00042634367
0.00046198261
0.00050480008
0.00051665909
0.00015461609
0.00016798497
0.00019361427
0.00022576656
0.00026039248
0.00029517935
0.0003291275
0.00036206598
0.00039440905
0.00042720346
0.00046262136
0.00050533338
0.00051726585
0.00016143465
0.00017423143
0.0001988806
0.00022999795
0.00026370257
0.00029771632
0.00033102948
0.00036345743
0.00039540518
0.00042791418
0.00046315496
0.00050580231
0.00051784835
0.0001677314
0.0001799764
0.00020367702
0.00023379302
0.00026661508
0.00029990217
0.00033263197
0.00036460196
0.00039620481
0.00042847514
0.00046358173
0.0005062047
0.00051840409
0.00017350165
0.00018522056
0.00020801226
0.00023716599
0.00026914508
0.00030174947
0.00033394378
0.00036550485
0.0003968104
0.00042888685
0.00046390099
0.0005065391
0.00051893074
0.0001787506
0.00018997215
0.00021189949
0.00024013365
0.00027130963
0.0003032727
0.00033497568
0.00036617319
0.00039722605
0.00042915124
0.00046411315
0.0005068048
0.00051942617
0.00018349097
0.00019424525
0.00021535541
0.0002427148
0.00027312734
0.00030448801
0.00033574018
0.00036661586
0.00039745759
0.00042927176
0.0004642199
0.00050700201
0.00051988857
0.00018774099
0.00019805829
0.00021839936
0.00024492974
0.00027461802
0.00030541288
0.00033625141
0.00036684347
0.00039751249
0.00042925337
0.00046422414
0.00050713181
0.00052031645
0.00019152275
0.0002014328
0.00022105257
0.0002467998
0.0002758023
0.00030606583
0.0003365248
0.00036686813
0.0003973998
0.00042910247
0.00046413006
0.00050719621
0.00052070876
0.00019486097
0.0002043924
0.00022333757
0.00024834696
0.00027670128
0.00030646609
0.00033657684
0.00036670324
0.00039712996
0.00042882684
0.00046394297
0.00050719807
0.00052106481
0.00019778187
0.000206962
0.00022527762
0.00024959346
0.00027733627
0.0003066333
0.00033642476
0.00036636324
0.00039671458
0.00042843539
0.00046366923
0.00050714101
0.00052138438
0.0002003125
0.00020916711
0.00022689628
0.00025056157
0.00027772852
0.00030658726
0.00033608626
0.00036586331
0.00039616617
0.00042793801
0.00046331603
0.00050702932
0.00052166764
0.00020248007
0.00021103338
0.00022821705
0.00025127327
0.00027789897
0.00030634767
0.00033557924
0.00036521913
0.00039549793
0.00042734529
0.00046289127
0.00050686781
0.00052191516
0.0002043115
0.0002125862
0.00022926313
0.00025175015
0.00027786813
0.0003059339
0.00033492156
0.00036444656
0.00039472346
0.00042666833
0.00046240326
0.00050666168
0.00052212789
0.00020583314
0.00021385038
0.00023005715
0.00025201315
0.00027765589
0.00030536487
0.00033413079
0.00036356144
0.00039385649
0.00042591844
0.00046186063
0.00050641633
0.00052230706
0.00020707048
0.00021485
0.00023062105
0.00025208251
0.00027728142
0.00030465885
0.00033322409
0.00036257938
0.00039291067
0.00042510699
0.00046127204
0.00050613731
0.00052245419
0.00020804802
0.00021560821
0.00023097591
0.00025197764
0.00027676306
0.00030383336
0.00033221796
0.00036151553
0.00039189936
0.00042424514
0.00046064607
0.00050583011
0.00052257102
0.00020878916
0.00021614713
0.00023114192
0.00025171708
0.00027611827
0.00030290506
0.00033112819
0.00036038443
0.00039083549
0.00042334373
0.00045999102
0.00050550008
0.00052265946
0.0002093161
0.0002164878
0.00023113825
0.00025131839
0.00027536357
0.00030188975
0.00032996975
0.00035919993
0.00038973133
0.00042241308
0.00045931485
0.00050515236
0.00052272151
0.00020964984
0.00021665013
0.00023098309
0.00025079818
0.0002745145
0.00030080221
0.00032875667
0.00035797501
0.00038859846
0.00042146291
0.00045862499
0.00050479177
0.00052275927
0.00020981014
0.00021665287
0.00023069354
0.00025017209
0.00027358565
0.00029965628
0.00032750204
0.00035672182
0.00038744767
0.00042050225
0.00045792834
0.0005044228
0.00052277486
0.00020981555
0.00021651363
0.00023028569
0.00024945474
0.00027259059
0.0002984648
0.00032621799
0.00035545152
0.00038628887
0.00041953936
0.00045723121
0.00050404951
0.00052277039
0.00020968341
0.00021624891
0.00022977459
0.00024865978
0.00027154192
0.0002972396
0.00032491563
0.00035417436
0.00038513109
0.00041858174
0.00045653925
0.0005036756
0.00052274795
0.0002094299
0.00021587407
0.00022917426
0.00024779989
0.00027045128
0.00029599154
0.0003236051
0.0003528996
0.00038398246
0.00041763609
0.00045585749
0.00050330433
0.00052270956
0.00020907004
0.00021540342
0.00022849772
0.0002468868
0.00026932937
0.00029473053
0.00032229558
0.00035163556
0.00038285022
0.00041670831
0.0004551903
0.00050293855
0.00052265719
0.00020861779
0.0002148502
0.00022775703
0.00024593135
0.00026818599
0.00029346555
0.0003209953
0.00035038965
0.00038174073
0.00041580351
0.00045454146
0.00050258073
0.00052259267
0.00020808602
0.00021422666
0.00022696332
0.00024494345
0.00026703004
0.00029220467
0.00031971159
0.00034916835
0.00038065952
0.00041492607
0.00045391412
0.0005022329
0.00052251778
0.00020748662
0.00021354408
0.00022612682
0.00024393218
0.00026586958
0.00029095513
0.0003184509
0.00034797731
0.00037961126
0.00041407964
0.00045331076
0.00050189532
0.00052243407
0.00020683051
0.00021281284
0.00022525688
0.0002429058
0.00026471186
0.00028972331
0.00031721885
0.00034682133
0.00037859987
0.00041326709
0.00045273313
0.00050156772
0.00052234289
0.0002061277
0.00021204242
0.00022436205
0.00024187177
0.00026356338
0.00028851485
0.00031602029
0.00034570447
0.00037762856
0.00041249068
0.0004521816
0.00050125099
0.00052224543
0.00020538734
0.00021124149
0.0002234501
0.00024083684
0.00026242988
0.00028733464
0.00031485931
0.00034463003
0.00037669976
0.00041175186
0.0004516568
0.0005009466
0.00052214289
0.00020461777
0.00021041791
0.00022252804
0.00023980704
0.00026131644
0.00028618689
0.00031373935
0.00034360071
0.00037581538
0.00041105106
0.00045115892
0.00050065647
0.00052203655
0.00020382657
0.00020957883
0.00022160222
0.00023878773
0.0002602275
0.0002850752
0.00031266321
0.0003426185
0.00037497634
0.00041038851
0.00045068916
0.0005003816
0.00052192757
0.00020302059
0.00020873071
0.0002206783
0.00023778369
0.00025916691
0.00028400255
0.0003116331
0.00034168478
0.00037418311
0.00040976446
0.00045024835
0.00050012269
0.00052181703
0.00020220602
0.00020787934
0.00021976138
0.00023679911
0.00025813797
0.00028297144
0.00031065071
0.0003408003
0.00037343542
0.00040917957
0.00044983689
0.00049988015
0.00052170587
0.00020138844
0.00020702994
0.00021885597
0.00023583766
0.00025714348
0.0002819838
0.00030971708
0.00033996502
0.00037273363
0.000408634
0.00044945481
0.00049965416
0.00052159493
0.00020057284
0.00020618714
0.00021796605
0.00023490251
0.00025618576
0.00028104108
0.00030883265
0.00033917893
0.00037207785
0.0004081276
0.00044910189
0.00049944469
0.00052148495
0.00019976365
0.00020535508
0.00021709511
0.00023399636
0.00025526665
0.00028014422
0.00030799733
0.00033844213
0.00037146782
0.00040765991
0.00044877767
0.00049925157
0.00052137659
0.00019896484
0.00020453739
0.00021624621
0.00023312152
0.00025438756
0.00027929334
0.00030721132
0.00033775441
0.00037090297
0.00040723018
0.00044848148
0.00049907445
0.00052127039
0.00019817987
0.00020373726
0.00021542198
0.00023227975
0.0002535491
0.00027848887
0.00030647451
0.0003371152
0.00037038246
0.00040683748
0.00044821249
0.00049891289
0.00052116683
0.0001974118
0.00020295746
0.00021462447
0.00023147224
0.00025275199
0.00027773093
0.00030578649
0.00033652368
0.0003699052
0.00040648065
0.00044796972
0.00049876635
0.00052106629
0.00019666317
0.00020220019
0.00021385535
0.00023070006
0.00025199668
0.00027701935
0.00030514658
0.00033597879
0.00036946991
0.00040615839
0.00044775206
0.0004986342
0.00052096908
0.00019593609
0.00020146732
0.00021311598
0.00022996401
0.00025128334
0.00027635374
0.00030455388
0.00033547926
0.00036907513
0.00040586926
0.00044755834
0.00049851577
0.00052087546
0.00019523237
0.0002007604
0.00021240749
0.00022926464
0.00025061191
0.00027573345
0.00030400728
0.00033502365
0.00036871928
0.00040561174
0.00044738734
0.00049841035
0.00052078562
0.00019455352
0.00020008072
0.00021173072
0.00022860226
0.00024998213
0.00027515768
0.00030350554
0.00033461042
0.00036840071
0.00040538428
0.0004472378
0.00049831724
0.00052069971
0.00019390076
0.00019942932
0.00021108632
0.00022797697
0.00024939353
0.00027462544
0.00030304725
0.00033423792
0.00036811768
0.00040518528
0.0004471085
0.00049823575
0.00052061786
0.00019327511
0.00019880699
0.00021047469
0.00022738868
0.00024884549
0.00027413563
0.00030263093
0.00033390442
0.00036786845
0.00040501317
0.00044699821
0.00049816521
0.00052054015
0.00019267735
0.00019821434
0.00020989605
0.00022683713
0.00024833724
0.00027368702
0.000302255
0.00033360817
0.00036765125
0.00040486636
0.00044690575
0.00049810496
0.00052046664
0.00019210805
0.00019765175
0.00020935044
0.0002263219
0.00024786789
0.00027327828
0.00030191781
0.00033334736
0.00036746429
0.00040474331
0.00044682993
0.00049805437
0.00052039736
0.0001915676
0.00019711945
0.00020883773
0.00022584244
0.00024743641
0.00027290799
0.00030161766
0.00033312014
0.00036730581
0.00040464245
0.0004467696
0.00049801282
0.00052033233
0.00019105621
0.00019661747
0.00020835765
0.00022539804
0.00024704167
0.00027257463
0.00030135277
0.00033292466
0.00036717399
0.00040456223
0.00044672362
0.00049797965
0.0005202715
0.00019057392
0.0001961457
0.00020790977
0.00022498788
0.00024668245
0.00027227663
0.00030112133
0.00033275902
0.00036706704
0.00040450112
0.00044669083
0.00049795421
0.00052021482
0.00019012061
0.00019570387
0.00020749353
0.00022461103
0.00024635743
0.00027201235
0.0003009215
0.00033262132
0.00036698318
0.0004044576
0.0004466701
0.00049793588
0.0005201622
0.00018969602
0.00019529159
0.00020710824
0.00022426646
0.00024606521
0.00027178011
0.00030075142
0.00033250966
0.00036692064
0.00040443016
0.00044666031
0.00049792399
0.00052011353
0.00018929977
0.00019490834
0.00020675314
0.00022395305
0.00024580436
0.00027157819
0.00030060921
0.00033242218
0.00036687768
0.00040441735
0.00044666042
0.00049791794
0.0005200687
0.00018893138
0.00019455349
0.00020642734
0.00022366963
0.00024557338
0.00027140486
0.00030049304
0.00033235705
0.00036685264
0.0004044178
0.00044666941
0.00049791716
0.00052002758
0.00018859024
0.00019422634
0.00020612992
0.00022341497
0.00024537079
0.00027125843
0.0003004011
0.00033231251
0.00036684394
0.00040443021
0.00044668635
0.00049792113
0.00051999004
0.00018827569
0.00019392611
0.00020585987
0.00022318782
0.00024519507
0.00027113721
0.00030033163
0.00033228686
0.00036685007
0.00040445337
0.00044671039
0.00049792939
0.00051995595
0.00018798699
0.00019365196
0.00020561617
0.0002229869
0.00024504472
0.00027103953
0.00030028295
0.00033227848
0.00036686961
0.00040448614
0.00044674076
0.00049794151
0.00051992518
0.00018772335
0.000193403
0.00020539773
0.00022281092
0.00024491825
0.00027096379
0.00030025339
0.00033228582
0.00036690121
0.00040452747
0.00044677671
0.0004979571
0.00051989763
0.0001874839
0.00019317827
0.00020520343
0.00022265856
0.00024481417
0.00027090838
0.00030024138
0.0003323074
0.00036694359
0.00040457635
0.00044681755
0.00049797578
0.00051987314
0.00018726775
0.0001929768
0.00020503215
0.0002225285
0.00024473101
0.00027087176
0.00030024535
0.00033234178
0.00036699551
0.00040463179
0.00044686261
0.00049799718
0.00051985158
0.00018707394
0.00019279756
0.00020488272
0.00022241942
0.00024466731
0.00027085237
0.0003002638
0.00033238755
0.00036705577
0.00040469288
0.00044691123
0.00049802091
0.00051983278
0.00018690149
0.0001926395
0.00020475396
0.00022233
0.00024462162
0.00027084873
0.00030029525
0.00033244338
0.00036712322
0.00040475868
0.00044696276
0.00049804657
0.00051981659
0.00018674939
0.00019250154
0.00020464466
0.0002222589
0.0002445925
0.00027085937
0.00030033828
0.00033250796
0.00036719675
0.00040482834
0.00044701657
0.0004980738
0.00051980283
0.00018661659
0.00019238258
0.00020455364
0.00022220481
0.00024457857
0.00027088286
0.00030039152
0.00033258006
0.00036727533
0.00040490103
0.0004470721
0.00049810223
0.00051979132
0.00018650205
0.00019228154
0.0002044797
0.00022216645
0.00024457848
0.00027091786
0.00030045369
0.00033265852
0.00036735798
0.00040497602
0.0004471288
0.00049813156
0.0005197819
0.00018640472
0.0001921973
0.00020442167
0.00022214257
0.00024459092
0.00027096306
0.00030052359
0.00033274228
0.00036744383
0.00040505263
0.00044718625
0.00049816151
0.00051977442
0.00018632357
0.00019212882
0.00020437842
0.00022213196
0.00024461467
0.00027101729
0.00030060009
0.00033283038
0.00036753211
0.0004051303
0.00044724406
0.00049819189
0.00051976876
0.00018625757
0.00019207502
0.00020434884
0.00022213349
0.00024464857
0.0002710794
0.00030068218
0.00033292195
0.00036762214
0.00040520855
0.00044730194
0.00049822255
0.00051976478
0.00018620574
0.0001920349
0.00020433186
0.00022214605
0.00024469152
0.00027114837
0.00030076893
0.00033301621
0.0003677133
0.00040528695
0.00044735963
0.00049825336
0.0005197624
0.00018616709
0.00019200745
0.00020432647
0.00022216859
0.00024474249
0.00027122322
0.00030085947
0.00033311245
0.00036780506
0.00040536514
0.00044741692
0.00049828422
0.00051976149
0.00018614068
0.0001919917
0.00020433166
0.00022220011
0.0002448005
0.00027130304
0.000300953
0.00033320999
0.00036789692
0.00040544277
0.00044747359
0.00049831502
0.00051976196
0.00018612554
0.00019198669
0.00020434647
0.00022223964
0.0002448646
0.00027138694
0.00030104875
0.00033330822
0.0003679884
0.0004055195
0.00044752943
0.00049834561
0.00051976369
0.00018612076
0.00019199149
0.00020436993
0.00022228623
0.00024493388
0.00027147409
0.00030114599
0.00033340653
0.00036807902
0.00040559498
0.0004475842
0.00049837584
0.00051976655
0.0001861254
0.00019200517
0.00020440113
0.00022233897
0.00024500747
0.00027156368
0.000301244
0.00033350431
0.00036816831
0.00040566886
0.00044763762
0.00049840552
0.00051977041
0.00018613857
0.00019202682
0.00020443915
0.00022239695
0.00024508451
0.00027165494
0.00030134211
0.00033360101
0.00036825582
0.0004057408
0.00044768945
0.00049843445
0.00051977511
0.00018615938
0.00019205555
0.00020448311
0.00022245932
0.00024516419
0.00027174712
0.00030143967
0.0003336961
0.00036834113
0.00040581045
0.00044773943
0.00049846244
0.00051978052
0.00018618695
0.00019209051
0.00020453218
0.00022252528
0.00024524575
0.00027183955
0.00030153611
0.00033378909
0.00036842386
0.00040587755
0.00044778736
0.00049848933
0.00051978651
0.00018622049
0.00019213088
0.00020458554
0.00022259405
0.0002453285
0.00027193162
0.00030163091
0.00033387959
0.00036850372
0.00040594188
0.00044783307
0.00049851493
0.00051979295
0.0001862592
0.0001921759
0.00020464248
0.00022266497
0.00024541183
0.00027202279
0.00030172366
0.00033396727
0.00036858047
0.00040600329
0.00044787648
0.00049853907
0.00051979975
0.00018630239
0.00019222486
0.00020470231
0.00022273739
0.00024549518
0.00027211263
0.00030181399
0.0003340519
0.00036865398
0.00040606172
0.00044791751
0.00049856174
0.00051980682
0.00018634941
0.00019227715
0.00020476445
0.0002228108
0.0002455781
0.00027220077
0.00030190167
0.00033413332
0.00036872418
0.00040611716
0.00044795615
0.00049858304
0.0005198141
0.00018639965
0.00019233217
0.00020482835
0.00022288471
0.00024566021
0.00027228692
0.00030198651
0.00033421145
0.00036879108
0.00040616963
0.00044799246
0.0004986031
0.00051982158
0.00018645258
0.00019238941
0.00020489353
0.00022295872
0.00024574118
0.00027237086
0.00030206837
0.00033428625
0.00036885469
0.00040621916
0.00044802655
0.00049862207
0.00051982924
0.00018650771
0.00019244839
0.00020495958
0.00022303247
0.00024582073
0.0002724524
0.00030214718
0.00033435771
0.00036891502
0.00040626581
0.0004480586
0.00049864005
0.00051983707
0.00018656458
0.00019250868
0.00020502609
0.00022310562
0.00024589862
0.00027253137
0.00030222283
0.00033442578
0.00036897206
0.00040630966
0.0004480887
0.00049865712
0.00051984503
0.00018662275
0.00019256987
0.00020509269
0.00022317786
0.00024597459
0.00027260762
0.00030229524
0.00033449042
0.0003690258
0.0004063508
0.00044811692
0.00049867332
0.00051985309
0.00018668179
0.00019263154
0.00020515903
0.00022324889
0.00024604843
0.00027268098
0.00030236429
0.00033455153
0.00036907629
0.00040638927
0.0004481433
0.00049868863
0.0005198612
0.0001867413
0.00019269331
0.00020522475
0.00022331842
0.00024611989
0.00027275128
0.00030242982
0.00033460904
0.0003691235
0.00040642507
0.00044816782
0.00049870304
0.0005198693
0.00018680086
0.00019275478
0.0002052895
0.00022338615
0.00024618875
0.0002728183
0.00030249171
0.00033466293
0.00036916741
0.00040645818
0.00044819045
0.00049871647
0.00051987732
0.00018686009
0.0001928156
0.00020535295
0.00022345181
0.00024625476
0.00027288188
0.00030254986
0.00033471313
0.000369208
0.00040648857
0.00044821115
0.00049872887
0.00051988519
0.00018691861
0.00019287541
0.00020541481
0.00022351512
0.0002463177
0.00027294186
0.0003026042
0.00033475959
0.00036924523
0.00040651622
0.00044822987
0.00049874017
0.00051989283
0.00018697609
0.00019293389
0.00020547476
0.00022357584
0.00024637741
0.00027299817
0.00030265468
0.00033480233
0.00036927912
0.00040654113
0.00044824661
0.00049875034
0.00051990018
0.00018703222
0.00019299075
0.00020553258
0.00022363379
0.00024643378
0.00027305074
0.0003027013
0.00033484135
0.00036930971
0.00040656335
0.0004482614
0.00049875936
0.0005199072
0.00018708677
0.00019304577
0.00020558807
0.00022368885
0.00024648674
0.00027309958
0.00030274411
0.00033487677
0.00036933711
0.00040658297
0.00044827431
0.00049876728
0.00051991388
0.00018713952
0.00019309877
0.00020564109
0.00022374094
0.0002465363
0.00027314475
0.00030278323
0.0003349087
0.00036936146
0.00040660015
0.00044828546
0.00049877417
0.00051992019
0.00018719035
0.00019314963
0.00020569159
0.00022379005
0.0002465825
0.00027318636
0.0003028188
0.00033493733
0.00036938295
0.00040661505
0.00044829499
0.00049878012
0.00051992617
0.00018723918
0.00019319829
0.00020573954
0.00022383622
0.00024662544
0.00027322456
0.00030285102
0.00033496288
0.00036940182
0.00040662789
0.00044830309
0.00049878527
0.00051993184
0.00018728596
0.00019324473
0.00020578496
0.00022387953
0.00024666525
0.00027325953
0.00030288011
0.00033498559
0.00036941829
0.0004066389
0.00044830995
0.00049878974
0.00051993722
0.00018733069
0.00019328897
0.0002058279
0.00022392006
0.00024670209
0.00027329146
0.00030290629
0.0003350057
0.00036943262
0.00040664829
0.00044831575
0.00049879365
0.00051994237
0.00018737338
0.00019333103
0.00020586842
0.00022395793
0.0002467361
0.00027332054
0.00030292978
0.00033502343
0.000369445
0.00040665625
0.00044832064
0.00049879712
0.00051994731
0.00018741405
0.00019337094
0.00020590659
0.00022399324
0.00024676742
0.00027334696
0.00030295077
0.00033503899
0.00036945563
0.00040666295
0.00044832474
0.00049880021
0.00051995205
0.00018745272