/*--------------------------------*- C++ -*----------------------------------*\
| =========                 |                                                 |
| \\      /  F ield         | OpenFOAM: The Open Source CFD Toolbox           |
|  \\    /   O peration     | Version:  2506                                  |
|   \\  /    A nd           | Website:  www.openfoam.com                      |
|    \\/     M anipulation  |                                                 |
\*---------------------------------------------------------------------------*/
FoamFile
{
    version     2.0;
    format      ascii;
    arch        "LSB;label=32;scalar=64";
    class       volScalarField;
    location    "6000/water";
    object      nut;
}
// * * * * * * * * * * * * * * * * * * * * * * * * * * * * * * * * * * * * * //

dimensions      [0 2 -1 0 0 0 0];

internalField   nonuniform List<scalar> 
2600
(
4.0562043e-05
4.0561942e-05
4.0561944e-05
4.0561981e-05
4.0561942e-05
4.0561434e-05
4.0558261e-05
4.0540002e-05
4.0435343e-05
3.98338e-05
3.6541397e-05
2.4161555e-05
1.4889524e-05
3.944741e-05
3.9447468e-05
3.944759e-05
3.9447676e-05
3.9447275e-05
3.9444342e-05
3.9428907e-05
3.9352895e-05
3.8988431e-05
3.7314814e-05
3.0763187e-05
1.7536145e-05
1.684056e-05
3.852265e-05
3.852264e-05
3.8522725e-05
3.8522528e-05
3.8520597e-05
3.8510798e-05
3.8466747e-05
3.8277827e-05
3.7500368e-05
3.454641e-05
2.5814945e-05
1.4669956e-05
1.7712619e-05
3.7742032e-05
3.774193e-05
3.7741811e-05
3.7740766e-05
3.7735283e-05
3.7711707e-05
3.7617453e-05
3.7258039e-05
3.5961308e-05
3.177518e-05
2.2061889e-05
1.3531464e-05
1.7967898e-05
3.7073562e-05
3.7073366e-05
3.7072781e-05
3.7069955e-05
3.7057916e-05
3.7011651e-05
3.6843992e-05
3.6266509e-05
3.4405655e-05
2.9188861e-05
1.9425178e-05
1.3345943e-05
1.7902414e-05
3.6493786e-05
3.6493393e-05
3.6491924e-05
3.648598e-05
3.646354e-05
3.6384687e-05
3.612226e-05
3.5294625e-05
3.2873382e-05
2.6881541e-05
1.771645e-05
1.3793839e-05
1.7689846e-05
3.5985207e-05
3.5984445e-05
3.5981496e-05
3.5970726e-05
3.5933497e-05
3.5812307e-05
3.5437992e-05
3.4343601e-05
3.1395257e-05
2.4892541e-05
1.6781972e-05
1.4727875e-05
1.7427344e-05
3.5534568e-05
3.55332e-05
3.5528007e-05
3.5510417e-05
3.5453869e-05
3.5281761e-05
3.478374e-05
3.3418009e-05
2.9989903e-05
2.3242727e-05
1.6521213e-05
1.605365e-05
1.7168093e-05
3.5131649e-05
3.5129373e-05
3.5121029e-05
3.5094485e-05
3.5014364e-05
3.4784646e-05
3.4156253e-05
3.2521766e-05
2.8667649e-05
2.1957692e-05
1.6869959e-05
1.7676047e-05
1.694009e-05
3.4768438e-05
3.47649e-05
3.4752406e-05
3.4714802e-05
3.4607522e-05
3.4315777e-05
3.3554458e-05
3.16563e-05
2.7438403e-05
2.1076946e-05
1.7774701e-05
1.9481897e-05
1.6755877e-05
3.4438571e-05
3.443338e-05
3.4415717e-05
3.4365168e-05
3.4228127e-05
3.3872266e-05
3.2977968e-05
3.0820513e-05
2.6321667e-05
2.0649591e-05
1.9168673e-05
2.1348725e-05
1.6617712e-05
3.4136931e-05
3.4129689e-05
3.4105903e-05
3.4040932e-05
3.3872746e-05
3.3452766e-05
3.2426062e-05
3.0012536e-05
2.5355877e-05
2.0719809e-05
2.0958175e-05
2.3166793e-05
1.6521078e-05
3.3859367e-05
3.3849701e-05
3.3819003e-05
3.3738723e-05
3.3539365e-05
3.3056856e-05
3.1897087e-05
2.923354e-05
2.4602257e-05
2.1309035e-05
2.3024752e-05
2.4858007e-05
1.6457822e-05
3.3602495e-05
3.3590098e-05
3.355197e-05
3.3456247e-05
3.3227088e-05
3.2684517e-05
3.1388405e-05
2.8493549e-05
2.4138757e-05
2.2402735e-05
2.5241354e-05
2.6381456e-05
1.6418929e-05
3.3363555e-05
3.334823e-05
3.3302533e-05
3.3192135e-05
3.2935885e-05
3.2335692e-05
3.0897111e-05
2.7818119e-05
2.4044358e-05
2.3946906e-05
2.7493335e-05
2.7726694e-05
1.6396422e-05
3.3140311e-05
3.3122024e-05
3.3069114e-05
3.2945826e-05
3.2666358e-05
3.2009929e-05
3.0421904e-05
2.725306e-05
2.4379894e-05
2.5855075e-05
2.9693858e-05
2.8902281e-05
1.6384202e-05
3.2930983e-05
3.2909915e-05
3.2850758e-05
3.2717477e-05
3.2419519e-05
3.1706209e-05
2.9966345e-05
2.6863467e-05
2.5173338e-05
2.8023002e-05
3.1788481e-05
2.9925862e-05
1.6378087e-05
3.27342e-05
3.2710811e-05
3.2647097e-05
3.2507877e-05
3.219656e-05
3.1423099e-05
2.9543334e-05
2.6725088e-05
2.6414165e-05
3.0346001e-05
3.3750499e-05
3.0817911e-05
1.6375449e-05
3.254898e-05
3.2524066e-05
3.2458325e-05
3.2318371e-05
3.1998619e-05
3.1159479e-05
2.9179673e-05
2.6909996e-05
2.805682e-05
3.2733298e-05
3.5572232e-05
3.159849e-05
1.6374764e-05
3.2374714e-05
3.234948e-05
3.2285189e-05
3.2150777e-05
3.1826588e-05
3.0916123e-05
2.8918575e-05
2.7471841e-05
3.0030665e-05
3.5115834e-05
3.7256818e-05
3.2285747e-05
1.6375224e-05
3.2211173e-05
3.2187303e-05
3.2128983e-05
3.2007273e-05
3.1681012e-05
3.0698308e-05
2.8817773e-05
2.843585e-05
3.2252928e-05
3.7447133e-05
3.8812576e-05
3.2895331e-05
1.6376448e-05
3.2058522e-05
3.2038256e-05
3.199155e-05
3.1890271e-05
3.1562235e-05
3.051924e-05
2.8942305e-05
2.9795901e-05
3.4641249e-05
3.9699498e-05
4.0249838e-05
3.3440303e-05
1.6378293e-05
3.1917349e-05
3.1903563e-05
3.1875268e-05
3.1802262e-05
3.147098e-05
3.0403414e-05
2.9353631e-05
3.1518041e-05
3.7123065e-05
4.1858566e-05
4.1579379e-05
3.3931332e-05
1.6380731e-05
3.1788707e-05
3.1784988e-05
3.1783034e-05
3.1745667e-05
3.1409596e-05
3.0388388e-05
3.009864e-05
3.3548311e-05
3.9640503e-05
4.3918428e-05
4.2811639e-05
3.4377031e-05
1.638378e-05
3.167417e-05
3.1684884e-05
3.1718215e-05
3.1722747e-05
3.1384107e-05
3.0523332e-05
3.1201974e-05
3.5822342e-05
4.2151079e-05
4.5878174e-05
4.3956334e-05
3.4784314e-05
1.6387467e-05
3.1575896e-05
3.1606239e-05
3.1684577e-05
3.1735682e-05
3.1406918e-05
3.0863671e-05
3.2663377e-05
3.8274456e-05
4.4625623e-05
4.7739784e-05
4.5022274e-05
3.5158739e-05
1.6391813e-05
3.1496714e-05
3.155272e-05
3.1686171e-05
3.1786997e-05
3.1499546e-05
3.1462866e-05
3.445981e-05
4.0844581e-05
4.7045146e-05
4.9506882e-05
4.6017315e-05
3.5504794e-05
1.6396824e-05
3.1440215e-05
3.1528703e-05
3.1727217e-05
3.1880504e-05
3.1694229e-05
3.2363742e-05
3.6550942e-05
4.3482184e-05
4.939784e-05
5.1183996e-05
4.6948402e-05
3.5826124e-05
1.6402494e-05
3.141085e-05
3.1539289e-05
3.1812006e-05
3.2022927e-05
3.2033145e-05
3.3591894e-05
3.8886228e-05
4.6147426e-05
5.1676787e-05
5.2776063e-05
4.782164e-05
3.6125718e-05
1.6408802e-05
3.1414042e-05
3.1590274e-05
3.1944928e-05
3.222612e-05
3.2564562e-05
3.5152684e-05
4.1411887e-05
4.8810349e-05
5.3878385e-05
5.4288122e-05
4.8642393e-05
3.6406048e-05
1.6415722e-05
3.1456281e-05
3.1688095e-05
3.2130757e-05
3.2509433e-05
3.3336481e-05
3.703201e-05
4.4076506e-05
5.1449132e-05
5.6001296e-05
5.5725115e-05
4.9415388e-05
3.6669254e-05
1.642322e-05
3.1545208e-05
3.183974e-05
3.2375386e-05
3.2901323e-05
3.4389413e-05
3.9199976e-05
4.6834635e-05
5.4048188e-05
5.8045691e-05
5.7091638e-05
5.0144339e-05
3.6914944e-05
1.6431248e-05
3.1689662e-05
3.2052669e-05
3.2687146e-05
3.3439136e-05
3.5750341e-05
4.1616211e-05
4.9648334e-05
5.6596559e-05
6.0012743e-05
5.8392012e-05
5.0832727e-05
3.7144923e-05
1.6439749e-05
3.1899684e-05
3.2334824e-05
3.3078705e-05
3.4166341e-05
3.7429303e-05
4.4235461e-05
5.2487194e-05
5.9086684e-05
6.1904245e-05
5.9630093e-05
5.1482697e-05
3.7361244e-05
1.6448668e-05
3.2186466e-05
3.2694873e-05
3.3569197e-05
3.5127412e-05
3.9419067e-05
4.701243e-05
5.5327451e-05
6.1513508e-05
6.3722344e-05
6.0809395e-05
5.2096451e-05
3.7565314e-05
1.6457958e-05
3.2562282e-05
3.3142862e-05
3.4185833e-05
3.6361553e-05
4.1697461e-05
4.9905189e-05
5.8150808e-05
6.3873835e-05
6.5469391e-05
6.1933118e-05
5.26774e-05
3.7758158e-05
1.6467586e-05
3.3040474e-05
3.3691441e-05
3.4963995e-05
3.7896949e-05
4.4231434e-05
5.2877049e-05
6.0943283e-05
6.6165778e-05
6.7147566e-05
6.3002905e-05
5.3228279e-05
3.7940823e-05
1.6477531e-05
3.3635638e-05
3.4357649e-05
3.5945068e-05
3.9746995e-05
4.6981723e-05
5.5897119e-05
6.3694249e-05
6.838843e-05
6.8759334e-05
6.4022595e-05
5.3751053e-05
3.8114078e-05
1.6487766e-05
3.4364223e-05
3.5164902e-05
3.7171979e-05
4.1909157e-05
4.9907178e-05
5.8940025e-05
6.6395664e-05
7.0541366e-05
7.0305657e-05
6.4995388e-05
5.4247639e-05
3.8278684e-05
1.6498266e-05
3.524572e-05
3.6144414e-05
3.8683393e-05
4.4366364e-05
5.2968077e-05
6.1985169e-05
6.9041448e-05
7.2624748e-05
7.1789407e-05
6.5923871e-05
5.4719659e-05
3.8435268e-05
1.6509004e-05
3.630439e-05
3.7335015e-05
4.0508071e-05
4.7090198e-05
5.6128206e-05
6.5015943e-05
7.1626953e-05
7.4638167e-05
7.3213265e-05
6.6810357e-05
5.5168629e-05
3.8584369e-05
1.6519954e-05
3.7571045e-05
3.8780595e-05
4.2660836e-05
5.0044945e-05
5.9355778e-05
6.8018897e-05
7.4148649e-05
7.6582489e-05
7.4579719e-05
6.76569e-05
5.5595891e-05
3.872645e-05
1.653109e-05
3.9083851e-05
4.0525215e-05
4.5140974e-05
5.3191579e-05
6.262357e-05
7.0983105e-05
7.660321e-05
7.8458837e-05
7.5890908e-05
6.8465404e-05
5.6002631e-05
3.8861904e-05
1.6542386e-05
4.08869e-05
4.2606853e-05
4.7933092e-05
5.6490985e-05
6.5908445e-05
7.3899527e-05
7.8988645e-05
8.0268736e-05
7.7148735e-05
6.9237566e-05
5.6389886e-05
3.8991065e-05
1.6553816e-05
4.3025759e-05
4.5051414e-05
5.1009873e-05
5.9906211e-05
6.9190866e-05
7.6760137e-05
8.1303262e-05
8.2013418e-05
7.8354963e-05
6.9974896e-05
5.675856e-05
3.911421e-05
1.6565353e-05
4.5540339e-05
4.7868449e-05
5.4335746e-05
6.3403512e-05
7.2453905e-05
7.955841e-05
8.3546725e-05
8.3693975e-05
7.9511138e-05
7.0678712e-05
5.7109425e-05
3.9231566e-05
1.6576974e-05
4.8456699e-05
5.1049439e-05
5.7870619e-05
6.6952748e-05
7.568278e-05
8.228886e-05
8.5718424e-05
8.5311366e-05
8.0618596e-05
7.1350138e-05
5.7443132e-05
3.9343314e-05
1.6588653e-05
5.1780102e-05
5.4568617e-05
6.1572931e-05
7.0526862e-05
7.8863939e-05
8.4947812e-05
8.7817763e-05
8.6866347e-05
8.167845e-05
7.1990114e-05
5.7760216e-05
3.9449593e-05
1.6600366e-05
5.5491342e-05
5.8385621e-05
6.5401383e-05
7.4100916e-05
8.1987179e-05
8.7531659e-05
8.984404e-05
8.8359439e-05
8.2691571e-05
7.2599393e-05
5.8061096e-05
3.9550499e-05
1.6612087e-05
5.9547201e-05
6.2448893e-05
6.9315555e-05
7.7653773e-05
8.5043643e-05
9.003694e-05
9.1796374e-05
8.9790902e-05
8.3658587e-05
7.3178541e-05
5.8346084e-05
3.9646086e-05
1.662379e-05
6.3884444e-05
6.6699767e-05
7.3278187e-05
8.1167567e-05
8.8025174e-05
9.2460229e-05
9.3673657e-05
9.1160707e-05
8.4579866e-05
7.3727934e-05
5.861538e-05
3.9736371e-05
1.6635451e-05
6.8427308e-05
7.1077052e-05
7.7255168e-05
8.4626031e-05
9.092414e-05
9.4798064e-05
9.5474523e-05
9.2468532e-05
8.5455524e-05
7.4247765e-05
5.8869077e-05
3.9821328e-05
1.664704e-05
7.3095502e-05
7.5520255e-05
8.12147e-05
8.8014193e-05
9.3733333e-05
9.7046925e-05
9.719736e-05
9.3713766e-05
8.6285421e-05
7.4738043e-05
5.9107165e-05
3.9900895e-05
1.6658531e-05
7.781124e-05
7.997228e-05
8.5127248e-05
9.1318179e-05
9.6445916e-05
9.9203262e-05
9.8840337e-05
9.4895534e-05
8.7069184e-05
7.5198607e-05
5.9329533e-05
3.9974973e-05
1.6669891e-05
8.2504312e-05
8.4381431e-05
8.8965645e-05
9.4525125e-05
9.905544e-05
0.00010126356
0.00010040147
9.6012749e-05
8.7806237e-05
7.5629139e-05
5.9535981e-05
4.0043428e-05
1.6681088e-05
8.7114966e-05
8.8702706e-05
9.2705325e-05
9.7623193e-05
0.0001015559
0.00010322442
0.00010187873
9.7064178e-05
8.8495846e-05
7.6029198e-05
5.9726232e-05
4.0106099e-05
1.6692087e-05
9.1594904e-05
9.2898441e-05
9.6324595e-05
0.00010060167
0.00010394185
0.00010508271
0.00010327013
9.8048534e-05
8.913718e-05
7.6398254e-05
5.9899954e-05
4.0162805e-05
1.6702851e-05
9.5906945e-05
9.6938379e-05
9.9804893e-05
0.0001034511
0.00010620849
0.00010683568
0.00010457386
9.8964575e-05
8.9729386e-05
7.6735734e-05
6.0056785e-05
4.0213356e-05
1.671334e-05
0.0001000239
0.0001007993
0.00010313094
0.00010616344
0.00010835178
0.00010848104
0.00010578842
9.9811212e-05
9.0271669e-05
7.7041078e-05
6.0196362e-05
4.0257563e-05
1.6723514e-05
0.00010392709
0.00010446439
0.00010629075
0.00010873216
0.00011036857
0.00011001713
0.00010691272
0.00010058761
9.0763375e-05
7.7313796e-05
6.0318359e-05
4.0295255e-05
1.6733331e-05
0.00010760487
0.00010792238
0.00010927556
0.00011115236
0.00011225666
0.00011144298
0.00010794618
0.00010129329
9.120407e-05
7.7553528e-05
6.0422516e-05
4.0326293e-05
1.674275e-05
0.00011105118
0.00011116676
0.00011207961
0.00011342074
0.00011401482
0.00011275831
0.00010888876
0.00010192819
9.1593607e-05
7.7760091e-05
6.050868e-05
4.0350583e-05
1.6751731e-05
0.00011426435
0.00011419489
0.00011469984
0.0001155356
0.00011564283
0.00011396362
0.00010974106
0.0001024927
9.1932179e-05
7.7933533e-05
6.0576828e-05
4.0368095e-05
1.6760238e-05
0.00011724608
0.00011700729
0.00011713558
0.00011749672
0.00011714145
0.00011506015
0.00011050427
0.00010298774
9.2220357e-05
7.8074157e-05
6.0627092e-05
4.0378863e-05
1.6768237e-05
0.00012000066
0.00011960696
0.00011938821
0.00011930529
0.00011851236
0.00011604985
0.00011118019
0.0001034147
9.2459102e-05
7.8182545e-05
6.0659777e-05
4.0383003e-05
1.6775699e-05
0.00012253426
0.00012199885
0.00012146082
0.00012096368
0.00011975809
0.00011693534
0.00011177119
0.00010377548
9.2649767e-05
7.8259564e-05
6.0675364e-05
4.0380707e-05
1.6782601e-05
0.00012485445
0.00012418936
0.00012335788
0.00012247538
0.00012088194
0.00011771982
0.00011228015
0.00010407242
9.2794074e-05
7.830636e-05
6.0674508e-05
4.0372248e-05
1.6788927e-05
0.00012696981
0.000126186
0.000125085
0.00012384476
0.00012188787
0.00011840703
0.00011271038
0.00010430825
9.2894086e-05
7.8324334e-05
6.0658032e-05
4.035797e-05
1.6794666e-05
0.00012888961
0.00012799705
0.00012664865
0.00012507691
0.00012278038
0.00011900112
0.00011306561
0.00010448605
9.2952161e-05
7.8315121e-05
6.0626906e-05
4.0338284e-05
1.6799815e-05
0.00013062353
0.00012963133
0.00012805593
0.00012617756
0.00012356445
0.00011950662
0.00011334984
0.00010460919
9.2970906e-05
7.8280549e-05
6.0582225e-05
4.0313656e-05
1.6804378e-05
0.00013218154
0.00013109803
0.00012931441
0.00012715284
0.00012424539
0.00011992831
0.00011356733
0.00010468124
9.2953121e-05
7.8222602e-05
6.0525187e-05
4.0284594e-05
1.6808364e-05
0.00013357366
0.00013240647
0.00013043197
0.00012800923
0.00012482879
0.00012027119
0.00011372249
0.00010470593
9.2901747e-05
7.8143379e-05
6.0457063e-05
4.0251634e-05
1.6811789e-05
0.00013480993
0.00013356606
0.00013141664
0.00012875342
0.0001253204
0.00012054036
0.00011381982
0.00010468709
9.2819815e-05
7.8045052e-05
6.0379168e-05
4.021533e-05
1.6814674e-05
0.00013590025
0.00013458613
0.00013227654
0.00012939221
0.00012572606
0.000120741
0.00011386388
0.00010462858
9.2710391e-05
7.7929826e-05
6.0292838e-05
4.017624e-05
1.6817042e-05
0.00013685435
0.0001354759
0.00013301973
0.00012993242
0.00012605164
0.00012087825
0.0001138592
0.00010453424
9.2576538e-05
7.77999e-05
6.01994e-05
4.0134914e-05
1.6818922e-05
0.00013768168
0.00013624437
0.00013365417
0.00013038083
0.00012630296
0.00012095725
0.00011381026
0.00010440787
9.242127e-05
7.7657441e-05
6.0100155e-05
4.0091883e-05
1.6820345e-05
0.00013839144
0.00013690029
0.00013418768
0.00013074414
0.00012648579
0.00012098301
0.00011372144
0.00010425316
9.2247522e-05
7.7504548e-05
5.9996356e-05
4.0047654e-05
1.6821343e-05
0.00013899248
0.00013745213
0.00013462783
0.00013102887
0.00012660574
0.00012096043
0.00011359697
0.00010407368
9.2058122e-05
7.7343235e-05
5.9889193e-05
4.00027e-05
1.6821951e-05
0.00013949329
0.00013790804
0.00013498197
0.00013124138
0.00012666827
0.00012089423
0.00011344095
0.00010387287
9.1855766e-05
7.717541e-05
5.9779782e-05
3.9957456e-05
1.6822202e-05
0.00013990201
0.00013827582
0.00013525716
0.0001313878
0.00012667866
0.00012078898
0.0001132573
0.00010365397
9.1643004e-05
7.7002859e-05
5.9669155e-05
3.9912318e-05
1.682213e-05
0.0001402264
0.00013856293
0.00013546017
0.00013147402
0.00012664197
0.00012064904
0.00011304972
0.00010342007
9.142223e-05
7.6827246e-05
5.955826e-05
3.9867641e-05
1.6821769e-05
0.00014047384
0.00013877647
0.00013559746
0.00013150569
0.00012656305
0.00012047856
0.00011282176
0.00010317407
9.1195668e-05
7.6650096e-05
5.944795e-05
3.9823737e-05
1.6821152e-05
0.0001406513
0.00013892317
0.00013567518
0.00013148819
0.00012644652
0.00012028148
0.00011257672
0.00010291867
9.0965376e-05
7.6472801e-05
5.9338989e-05
3.9780877e-05
1.6820309e-05
0.0001407654
0.00013900939
0.00013569915
0.00013142662
0.00012629675
0.00012006152
0.00011231771
0.00010265637
9.0733237e-05
7.6296617e-05
5.9232052e-05
3.9739294e-05
1.6819271e-05
0.00014082237
0.00013904115
0.00013567488
0.00013132581
0.00012611789
0.00011982217
0.00011204764
0.00010238949
9.0500963e-05
7.6122661e-05
5.9127723e-05
3.9699179e-05
1.6818065e-05
0.00014082804
0.00013902409
0.00013560756
0.00013119032
0.00012591382
0.0001195667
0.00011176918
0.00010212012
9.0270088e-05
7.5951904e-05
5.9026457e-05
3.9660477e-05
1.6816718e-05
0.00014078791
0.0001389635
0.00013550204
0.00013102442
0.00012568818
0.00011929814
0.00011148481
0.00010185019
9.0041971e-05
7.5785175e-05
5.892861e-05
3.9623141e-05
1.681525e-05
0.00014070711
0.00013886434
0.00013536289
0.00013083211
0.00012544438
0.0001190193
0.00011119676
0.00010158141
8.9817786e-05
7.5623111e-05
5.8834206e-05
3.9587462e-05
1.6813681e-05
0.0001405904
0.00013873123
0.00013519434
0.00013061712
0.00012518555
0.00011873278
0.0001109071
0.00010131529
8.9598554e-05
7.5466291e-05
5.8743583e-05
3.9553565e-05
1.681203e-05
0.00014044223
0.00013856847
0.00013500037
0.00013038291
0.00012491463
0.00011844094
0.00011061765
0.00010105315
8.9385059e-05
7.5314831e-05
5.8657169e-05
3.9521538e-05
1.6810318e-05
0.00014026675
0.00013838004
0.00013478464
0.00013013271
0.0001246343
0.00011814595
0.00011033007
0.00010079613
8.9177923e-05
7.516942e-05
5.8575105e-05
3.9491428e-05
1.6808564e-05
0.00014006777
0.00013816965
0.00013455055
0.00012986948
0.00012434704
0.00011784976
0.0001100458
0.00010054521
8.8977685e-05
7.5030512e-05
5.8497511e-05
3.9463264e-05
1.6806785e-05
0.00013984885
0.00013794073
0.00013430127
0.00012959597
0.00012405511
0.00011755413
0.00010976609
0.00010030102
8.8785141e-05
7.4898353e-05
5.8424467e-05
3.9437057e-05
1.6804995e-05
0.00013961326
0.00013769645
0.00013403968
0.0001293147
0.00012376056
0.00011726061
0.00010949196
0.00010006453
8.8600763e-05
7.4773123e-05
5.8356012e-05
3.9412799e-05
1.6803208e-05
0.00013936402
0.00013743973
0.00013376848
0.00012902797
0.00012346525
0.00011697058
0.00010922444
9.9836536e-05
8.8424907e-05
7.4654946e-05
5.829215e-05
3.9390466e-05
1.6801436e-05
0.00013910391
0.00013717323
0.0001334901
0.00012873786
0.00012317082
0.00011668519
0.00010896461
9.9617602e-05
8.8257838e-05
7.454389e-05
5.8232853e-05
3.9370023e-05
1.679969e-05
0.00013883547
0.0001368994
0.00013320674
0.00012844622
0.00012287866
0.0001164058
0.00010871329
9.940818e-05
8.809974e-05
7.4439967e-05
5.8178064e-05
3.9351421e-05
1.6797978e-05
0.00013856097
0.00013662043
0.00013292035
0.00012815468
0.00012259031
0.00011613346
0.00010847114
9.9208613e-05
8.7950716e-05
7.4343137e-05
5.8127693e-05
3.9334602e-05
1.6796308e-05
0.00013828245
0.00013633824
0.00013263273
0.00012786492
0.00012230707
0.00011586907
0.00010823871
9.9019141e-05
8.7810789e-05
7.4253305e-05
5.8081624e-05
3.9319497e-05
1.6794688e-05
0.00013800177
0.00013605468
0.00013234561
0.00012757839
0.00012203005
0.00011561338
0.0001080164
9.8839906e-05
8.7679917e-05
7.4170335e-05
5.8039717e-05
3.9306026e-05
1.6793121e-05
0.00013772063
0.0001357714
0.0001320605
0.00012729637
0.00012176021
0.00011536702
0.00010780454
9.8670967e-05
8.7557993e-05
7.4094051e-05
5.800181e-05
3.9294106e-05
1.6791613e-05
0.00013744059
0.00013548991
0.00013177878
0.00012702
0.00012149836
0.00011513049
0.00010760333
9.8512313e-05
8.7444864e-05
7.4024246e-05
5.796773e-05
3.9283647e-05
1.6790166e-05
0.00013716305
0.00013521158
0.00013150166
0.00012675025
0.00012124522
0.00011490418
0.0001074129
9.836387e-05
8.7340337e-05
7.3960698e-05
5.7937297e-05
3.9274561e-05
1.6788782e-05
0.00013688928
0.0001349376
0.00013123023
0.00012648799
0.00012100136
0.0001146884
0.00010723332
9.8225519e-05
8.7244193e-05
7.3903171e-05
5.7910331e-05
3.9266763e-05
1.6787463e-05
0.00013662042
0.00013466907
0.00013096542
0.00012623396
0.00012076727
0.00011448338
0.00010706458
9.8097105e-05
8.7156194e-05
7.3851424e-05
5.7886654e-05
3.9260171e-05
1.6786211e-05
0.00013635748
0.00013440695
0.0001307081
0.00012598881
0.00012054337
0.00011428928
0.00010690665
9.7978437e-05
8.7076085e-05
7.3805213e-05
5.7866093e-05
3.9254708e-05
1.6785025e-05
0.00013610136
0.00013415209
0.00013045897
0.00012575307
0.00012032996
0.0001141062
0.00010675943
9.7869296e-05
8.7003597e-05
7.376429e-05
5.7848476e-05
3.9250302e-05
1.6783907e-05
0.00013585284
0.00013390522
0.00013021867
0.00012552721
0.00012012728
0.00011393415
0.00010662276
9.776943e-05
8.6938441e-05
7.3728402e-05
5.7833632e-05
3.9246882e-05
1.6782857e-05
0.00013561259
0.00013366698
0.00012998772
0.00012531156
0.00011993549
0.00011377311
0.00010649646
9.7678551e-05
8.6880311e-05
7.3697284e-05
5.7821388e-05
3.9244374e-05
1.6781875e-05
0.00013538117
0.00013343788
0.00012976652
0.00012510639
0.00011975465
0.00011362296
0.00010638029
9.7596338e-05
8.6828877e-05
7.3670662e-05
5.7811564e-05
3.9242708e-05
1.678096e-05
0.00013515905
0.00013321833
0.00012955541
0.00012491186
0.00011958477
0.00011348352
0.00010627394
9.7522438e-05
8.678379e-05
7.3648251e-05
5.7803979e-05
3.9241806e-05
1.6780111e-05
0.00013494656
0.00013300864
0.00012935459
0.00012472807
0.00011942575
0.00011335458
0.00010617709
9.745647e-05
8.6744689e-05
7.3629762e-05
5.7798446e-05
3.9241593e-05
1.6779327e-05
0.00013474397
0.00013280906
0.00012916422
0.00012455501
0.00011927747
0.00011323587
0.00010608937
9.7398041e-05
8.6711208e-05
7.3614904e-05
5.7794786e-05
3.9241994e-05
1.6778604e-05
0.00013455147
0.00013261972
0.00012898436
0.00012439265
0.00011913974
0.00011312707
0.00010601041
9.7346752e-05
8.6682984e-05
7.36034e-05
5.7792825e-05
3.9242941e-05
1.6777942e-05
0.00013436916
0.0001324407
0.00012881502
0.00012424087
0.00011901234
0.00011302786
0.00010593982
9.7302208e-05
8.6659667e-05
7.3594983e-05
5.7792404e-05
3.9244371e-05
1.6777337e-05
0.00013419711
0.00013227204
0.00012865616
0.00012409955
0.00011889503
0.00011293792
0.0001058772
9.7264025e-05
8.6640924e-05
7.3589409e-05
5.7793377e-05
3.9246229e-05
1.6776788e-05
0.00013403531
0.00013211372
0.0001285077
0.00012396851
0.00011878752
0.00011285689
0.00010582219
9.7231834e-05
8.6626441e-05
7.3586447e-05
5.7795614e-05
3.9248467e-05
1.6776291e-05
0.00013388374
0.00013196566
0.00012836952
0.00012384754
0.00011868954
0.00011278441
0.0001057744
9.7205274e-05
8.6615916e-05
7.3585885e-05
5.7798995e-05
3.9251043e-05
1.6775846e-05
0.00013374229
0.00013182776
0.00012824145
0.00012373642
0.00011860077
0.00011272013
0.00010573345
9.7183988e-05
8.6609056e-05
7.3587514e-05
5.7803404e-05
3.925392e-05
1.677545e-05
0.00013361085
0.00013169987
0.0001281233
0.00012363487
0.00011852088
0.00011266367
0.00010569895
9.716762e-05
8.6605569e-05
7.3591132e-05
5.780873e-05
3.9257059e-05
1.6775101e-05
0.00013348922
0.00013158179
0.00012801482
0.00012354259
0.00011844951
0.00011261462
0.0001056705
9.7155806e-05
8.6605163e-05
7.3596533e-05
5.7814858e-05
3.9260418e-05
1.6774797e-05
0.00013337718
0.00013147327
0.00012791573
0.00012345924
0.00011838626
0.00011257257
0.00010564769
9.7148178e-05
8.6607539e-05
7.3603509e-05
5.7821671e-05
3.9263956e-05
1.6774536e-05
0.00013327447
0.00013137402
0.0001278257
0.00012338445
0.00011833072
0.00011253708
0.0001056301
9.7144363e-05
8.6612401e-05
7.3611854e-05
5.7829051e-05
3.9267627e-05
1.6774315e-05
0.00013318077
0.00013128373
0.00012774437
0.00012331782
0.00011828247
0.00011250771
0.00010561732
9.7143997e-05
8.661946e-05
7.3621367e-05
5.7836886e-05
3.9271389e-05
1.6774131e-05
0.00013309576
0.00013120206
0.00012767139
0.00012325895
0.00011824107
0.00011248404
0.00010560893
9.7146731e-05
8.6628444e-05
7.3631863e-05
5.7845071e-05
3.9275202e-05
1.677398e-05
0.00013301911
0.00013112866
0.00012760638
0.00012320743
0.0001182061
0.00011246565
0.00010560455
9.7152239e-05
8.6639104e-05
7.3643175e-05
5.7853517e-05
3.9279034e-05
1.6773861e-05
0.00013295046
0.00013106316
0.00012754896
0.00012316288
0.00011817717
0.00011245214
0.00010560384
9.7160229e-05
8.6651222e-05
7.3655163e-05
5.7862151e-05
3.928286e-05
1.6773771e-05
0.00013288949
0.00013100523
0.00012749876
0.00012312491
0.00011815388
0.00011244316
0.00010560647
9.7170441e-05
8.6664609e-05
7.366771e-05
5.7870918e-05
3.9286665e-05
1.6773706e-05
0.00013283585
0.00013095453
0.00012745544
0.00012309316
0.00011813588
0.00011243837
0.00010561215
9.7182643e-05
8.6679102e-05
7.3680719e-05
5.7879775e-05
3.9290439e-05
1.6773666e-05
0.00013278923
0.00013091071
0.00012741865
0.00012306729
0.00011812282
0.00011243745
0.0001056206
9.7196622e-05
8.6694555e-05
7.3694107e-05
5.7888689e-05
3.9294178e-05
1.6773649e-05
0.0001327493
0.00013087345
0.00012738805
0.00012304694
0.00011811438
0.00011244009
0.00010563157
9.7212176e-05
8.6710828e-05
7.3707795e-05
5.7897626e-05
3.9297877e-05
1.6773654e-05
0.00013271569
0.00013084239
0.00012736328
0.00012303175
0.00011811021
0.00011244599
0.00010564479
9.7229103e-05
8.672778e-05
7.3721699e-05
5.7906552e-05
3.9301528e-05
1.6773679e-05
0.00013268806
0.00013081718
0.00012734397
0.00012302138
0.00011810996
0.00011245482
0.00010566
9.724719e-05
8.6745264e-05
7.373573e-05
5.7915422e-05
3.9305119e-05
1.6773724e-05
0.00013266602
0.00013079741
0.00012732974
0.00012301542
0.00011811326
0.00011246627
0.00010567692
9.7266217e-05
8.6763117e-05
7.3749784e-05
5.7924184e-05
3.9308632e-05
1.6773785e-05
0.00013264915
0.00013078268
0.00012732017
0.00012301348
0.00011811975
0.00011247998
0.00010569525
9.7285955e-05
8.6781174e-05
7.3763754e-05
5.793278e-05
3.9312044e-05
1.6773862e-05
0.00013263704
0.00013077258
0.00012731484
0.00012301515
0.00011812902
0.00011249563
0.00010571471
9.7306174e-05
8.6799268e-05
7.377753e-05
5.7941148e-05
3.9315332e-05
1.6773952e-05
0.00013262925
0.00013076666
0.00012731334
0.00012302002
0.00011814073
0.00011251287
0.00010573503
9.7326661e-05
8.6817243e-05
7.3791012e-05
5.7949233e-05
3.9318473e-05
1.6774052e-05
0.00013262536
0.00013076452
0.00012731525
0.00012302772
0.0001181545
0.00011253141
0.00010575595
9.7347224e-05
8.6834965e-05
7.3804115e-05
5.7956989e-05
3.9321435e-05
1.677416e-05
0.00013262498
0.00013076576
0.0001273202
0.00012303788
0.00011817002
0.00011255097
0.00010577726
9.7367706e-05
8.6852329e-05
7.3816778e-05
5.7964383e-05
3.9324196e-05
1.6774272e-05
0.00013262776
0.00013077003
0.00012732784
0.0001230502
0.00011818703
0.00011257133
0.00010579879
9.7387989e-05
8.6869263e-05
7.3828963e-05
5.7971392e-05
3.9326769e-05
1.6774389e-05
0.00013263339
0.00013077702
0.00012733789
0.0001230644
0.00011820529
0.00011259232
0.00010582041
9.7407993e-05
8.6885729e-05
7.3840658e-05
5.7978013e-05
3.9329168e-05
1.6774507e-05
0.0001326416
0.00013078648
0.0001273501
0.00012308027
0.00011822463
0.0001126138
0.00010584204
9.7427671e-05
8.6901707e-05
7.3851855e-05
5.7984285e-05
3.9331405e-05
1.6774627e-05
0.00013265216
0.00013079818
0.00012736425
0.00012309763
0.00011824489
0.00011263566
0.00010586361
9.7446998e-05
8.6917204e-05
7.3862583e-05
5.7990233e-05
3.9333499e-05
1.6774748e-05
0.00013266489
0.00013081192
0.00012738016
0.0001231163
0.00011826596
0.00011265782
0.00010588507
9.7465953e-05
8.6932204e-05
7.3872879e-05
5.7995881e-05
3.9335464e-05
1.6774871e-05
0.00013267958
0.00013082751
0.00012739766
0.00012313615
0.0001182877
0.00011268019
0.00010590636
9.7484505e-05
8.6946733e-05
7.3882756e-05
5.8001249e-05
3.9337318e-05
1.6774995e-05
0.00013269605
0.00013084477
0.00012741656
0.000123157
0.00011830999
0.00011270266
0.00010592743
9.7502619e-05
8.6960784e-05
7.3892222e-05
5.8006352e-05
3.9339069e-05
1.6775121e-05
0.00013271409
0.00013086349
0.00012743667
0.00012317869
0.00011833267
0.00011272513
0.00010594817
9.7520258e-05
8.6974333e-05
7.390127e-05
5.8011192e-05
3.9340724e-05
1.6775249e-05
0.00013273345
0.00013088343
0.00012745778
0.00012320101
0.00011835558
0.00011274744
0.00010596849
9.7537354e-05
8.6987338e-05
7.390988e-05
5.8015762e-05
3.9342281e-05
1.6775378e-05
0.00013275387
0.00013090436
0.00012747964
0.00012322374
0.00011837851
0.00011276943
0.00010598829
9.7553827e-05
8.6999748e-05
7.391802e-05
5.8020048e-05
3.9343735e-05
1.6775508e-05
0.00013277509
0.00013092599
0.00012750199
0.00012324665
0.00011840127
0.00011279097
0.00010600744
9.756959e-05
8.7011502e-05
7.3925653e-05
5.8024028e-05
3.9345077e-05
1.6775636e-05
0.0001327968
0.00013094804
0.00012752456
0.00012326948
0.00011842366
0.0001128119
0.00010602582
9.7584558e-05
8.7022542e-05
7.3932742e-05
5.802768e-05
3.9346297e-05
1.6775762e-05
0.00013281873
0.00013097024
0.0001275471
0.00012329205
0.00011844551
0.00011283207
0.00010604334
9.7598659e-05
8.703282e-05
7.3939258e-05
5.8030988e-05
3.9347385e-05
1.6775885e-05
0.00013284064
0.00013099236
0.00012756942
0.00012331416
0.00011846669
0.00011285139
0.00010605992
9.7611841e-05
8.7042307e-05
7.3945184e-05
5.8033943e-05
3.9348335e-05
1.6776003e-05
0.00013286232
0.0001310142
0.00012759132
0.00012333567
0.00011848706
0.00011286976
0.00010607551
9.7624082e-05
8.7050996e-05
7.3950522e-05
5.8036546e-05
3.9349147e-05
1.6776115e-05
0.00013288362
0.00013103562
0.00012761268
0.00012335648
0.00011850658
0.00011288717
0.00010609009
9.763539e-05
8.7058905e-05
7.3955291e-05
5.8038812e-05
3.9349826e-05
1.677622e-05
0.00013290446
0.00013105652
0.00012763344
0.00012337655
0.00011852521
0.0001129036
0.0001061037
9.7645803e-05
8.7066076e-05
7.395953e-05
5.8040766e-05
3.9350382e-05
1.6776318e-05
0.00013292479
0.00013107688
0.00012765356
0.00012339586
0.00011854298
0.0001129191
0.00010611639
9.7655381e-05
8.7072568e-05
7.3963288e-05
5.8042443e-05
3.9350831e-05
1.6776409e-05
0.00013294463
0.0001310967
0.00012767305
0.00012341444
0.00011855991
0.00011293373
0.00010612822
9.7664199e-05
8.7078454e-05
7.3966626e-05
5.8043884e-05
3.9351191e-05
1.6776495e-05
0.00013296401
0.00013111601
0.00012769196
0.00012343233
0.00011857608
0.00011294755
0.00010613927
9.7672339e-05
8.7083809e-05
7.3969603e-05
5.8045129e-05
3.9351481e-05
1.6776575e-05
0.00013298297
0.00013113486
0.00012771033
0.0001234496
0.00011859155
0.00011296064
0.00010614964
9.7679879e-05
8.70887e-05
7.3972275e-05
5.8046216e-05
3.935172e-05
1.677665e-05
0.00013300155
0.00013115328
0.0001277282
0.00012346628
0.00011860637
0.00011297307
0.00010615937
9.7686879e-05
8.7093184e-05
7.3974686e-05
5.8047174e-05
3.9351922e-05
1.6776722e-05
0.00013301979