/*--------------------------------*- C++ -*----------------------------------*\
| =========                 |                                                 |
| \\      /  F ield         | OpenFOAM: The Open Source CFD Toolbox           |
|  \\    /   O peration     | Version:  2506                                  |
|   \\  /    A nd           | Website:  www.openfoam.com                      |
|    \\/     M anipulation  |                                                 |
\*---------------------------------------------------------------------------*/
FoamFile
{
    version     2.0;
    format      ascii;
    arch        "LSB;label=32;scalar=64";
    class       surfaceScalarField;
    location    "6000/water";
    object      phi;
}
// * * * * * * * * * * * * * * * * * * * * * * * * * * * * * * * * * * * * * //

dimensions      [1 0 -1 0 0 0 0];

oriented        oriented;

internalField   nonuniform List<scalar> 
4987
(
-6.9167736e-06
0.00085760419
-2.7656569e-05
0.0024926737
-6.1431121e-05
0.0040117068
-0.0001075903
0.0054211695
-0.00016565319
0.0067272392
-0.00023525167
0.0079357375
-0.00031606519
0.0090521266
-0.00040763483
0.010081416
-0.00050867084
0.011027654
-0.00061447105
0.011892066
-0.00070641237
0.012665127
-0.00069017742
0.01327532
0.013255156
-6.4252097e-06
0.00086402939
-2.4701717e-05
0.0025109502
-5.3973207e-05
0.0040409782
-9.3433184e-05
0.0054606295
-0.00014227852
0.0067760845
-0.00019970621
0.0079931652
-0.00026484255
0.0091172629
-0.00033648012
0.010153054
-0.00041221923
0.011103393
-0.00048568429
0.011965531
-0.00053558126
0.012715024
-0.00047144624
0.013211185
0.01278371
-6.163969e-06
0.00087019336
-2.380905e-05
0.0025285953
-5.2164898e-05
0.0040693341
-9.0528703e-05
0.0054989933
-0.00013822172
0.0068237776
-0.00019455674
0.0080495002
-0.00025870612
0.0091814123
-0.00032929751
0.010223645
-0.00040329175
0.011177387
-0.00047276141
0.012035
-0.00051220841
0.012754471
-0.00042242592
0.013121403
0.012361284
-6.1054146e-06
0.00087629878
-2.3924376e-05
0.0025464143
-5.2620538e-05
0.0040980303
-9.1395558e-05
0.0055377683
-0.00013947504
0.006871857
-0.00019604176
0.0081060669
-0.00026004543
0.009245416
-0.00032969289
0.010293293
-0.00040116834
0.011248863
-0.00046497904
0.012098811
-0.00049117541
0.012780667
-0.00037835998
0.013008587
0.011982924
-5.9919784e-06
0.00088229076
-2.3432324e-05
0.0025638546
-5.1502782e-05
0.0041261007
-8.9417765e-05
0.0055756833
-0.0001363976
0.0069188369
-0.00019157934
0.0081612487
-0.00025377584
0.0093076125
-0.0003208868
0.010360404
-0.00038849227
0.011316468
-0.0004456482
0.012155967
-0.00045837524
0.012793394
-0.00033102689
0.012881239
0.011651897
-5.8197985e-06
0.00088811056
-2.2720415e-05
0.0025807553
-4.9911332e-05
0.0041532916
-8.6629801e-05
0.0056124017
-0.00013209822
0.0069643053
-0.00018540983
0.0082145603
-0.00024524283
0.0093674455
-0.00030921061
0.010424371
-0.00037232044
0.011379578
-0.00042207813
0.012205725
-0.00042081904
0.012792135
-0.00028517408
0.012745594
0.011366723
-5.6148952e-06
0.00089372545
-2.1923414e-05
0.0025970638
-4.8158186e-05
0.0041795264
-8.35701e-05
0.0056478136
-0.00012737381
0.007008109
-0.00017860877
0.0082657952
-0.00023581604
0.0094246528
-0.00029633568
0.010484891
-0.00035458539
0.011437828
-0.00039630862
0.012247448
-0.00038067559
0.012776502
-0.00024201049
0.012606929
0.011124713
-5.4046946e-06
0.00089913015
-2.1106786e-05
0.0026127659
-4.6361914e-05
0.0042047815
-8.0433154e-05
0.0056818849
-0.00012252438
0.0070502002
-0.00017161842
0.0083148893
-0.0002261212
0.0094791555
-0.00028309872
0.010541869
-0.00033629459
0.011491024
-0.00036936757
0.012280521
-0.00033930313
0.012746438
-0.00020218079
0.012469807
0.010922532
-5.2040372e-06
0.00090433418
-2.0322449e-05
0.0026278843
-4.4632486e-05
0.0042290916
-7.7407183e-05
0.0057146596
-0.000117836
0.007090629
-0.00016484161
0.0083618949
-0.00021669175
0.0095310057
-0.00027015443
0.010595331
-0.00031814583
0.011539015
-0.00034189245
0.012304267
-0.00029797663
0.012702522
-0.0001662914
0.012338121
0.010756241
-5.0193754e-06
0.00090935356
-1.9599432e-05
0.0026424643
-4.3036007e-05
0.0042525281
-7.4608171e-05
0.0057462317
-0.00011348606
0.0071295069
-0.00015852683
0.0084069356
-0.0002078498
0.0095803287
-0.00025787593
0.010645357
-0.00030047882
0.011581618
-0.00031421626
0.012318005
-0.00025799659
0.012646302
-0.00013488814
0.012215013
0.010621352
-4.8544122e-06
0.00091420797
-1.8953518e-05
0.0026565634
-4.1607992e-05
0.0042751826
-7.2098327e-05
0.0057767221
-0.00010956978
0.0071669784
-0.00015280648
0.0084501723
-0.00019976083
0.009627283
-0.00024643025
0.010692027
-0.00028338284
0.01161857
-0.00028657101
0.012321193
-0.00022065197
0.012580383
-0.00010831398
0.012102675
0.010513039
-4.7104907e-06
0.00091891846
-1.838964e-05
0.0026702426
-4.0359024e-05
0.004297152
-6.9895773e-05
0.0058062588
-0.00010611414
0.0072031967
-0.00014771517
0.0084917734
-0.00019245611
0.0096720239
-0.00023580475
0.010735375
-0.00026674607
0.011649512
-0.00025920371
0.012313651
-0.00018698909
0.012508168
-8.6549235e-05
0.012002235
0.010426489
-4.5864893e-06
0.00092350495
-1.7903118e-05
0.0026835592
-3.9278552e-05
0.0043185274
-6.7981782e-05
0.0058349621
-0.00010308929
0.0072383042
-0.0001432058
0.0085318899
-0.00018585427
0.0097146724
-0.00022583645
0.010775358
-0.0002503233
0.011673999
-0.00023244679
0.012295774
-0.00015760689
0.012433329
-6.9195206e-05
0.011913823
0.010357294
-4.47971e-06
0.00092798466
-1.7483378e-05
0.0026965629
-3.8343221e-05
0.0043393873
-6.6315361e-05
0.0058629342
-0.00010043089
0.0072724198
-0.00013918123
0.0085706402
-0.00017980338
0.0097552946
-0.00021627053
0.010811825
-0.0002338457
0.011691574
-0.00020673154
0.01226866
-0.0001326094
0.012359206
-5.5603112e-05
0.011836817
0.010301691
-4.3869483e-06
0.00093237161
-1.7117943e-05
0.0027092939
-3.7525518e-05
0.0043597948
-6.4848148e-05
0.0058902568
-9.8062773e-05
0.0073056344
-0.00013552609
0.0086081035
-0.00017412332
0.0097938918
-0.00020682319
0.010844525
-0.00021713162
0.011701882
-0.00018252415
0.012234053
-0.0001117049
0.012288387
-4.5044655e-05
0.011770157
0.010256646
-4.3051909e-06
0.0009366768
-1.6795059e-05
0.0027217838
-3.6799451e-05
0.0043797992
-6.3534222e-05
0.0059169916
-9.5911854e-05
0.007338012
-0.0001321276
0.0086443193
-0.00016863371
0.0098303979
-0.0001972305
0.010873121
-0.00020015793
0.01170481
-0.0001602209
0.012194115
-9.4372483e-05
0.012222539
-3.6838818e-05
0.011712623
0.010219807
-4.2319149e-06
0.00094090871
-1.6504851e-05
0.0027340567
-3.6143084e-05
0.0043994375
-6.2334437e-05
0.005943183
-9.3914665e-05
0.0073695922
-0.00012888455
0.0086792892
-0.00016316714
0.0098646805
-0.00018728235
0.010897237
-0.00018307195
0.011700599
-0.00014006424
0.012151108
-8.001793e-05
0.012162492
-3.0412511e-05
0.011663018
0.010189395
-4.1651418e-06
0.00094507386
-1.6239539e-05
0.0027461311
-3.5538992e-05
0.0044187369
-6.1217189e-05
0.0059688612
-9.2018424e-05
0.0074003935
-0.00012570858
0.0087129793
-0.00015757395
0.0098965459
-0.00017684648
0.010916509
-0.00016614712
0.0116899
-0.0001221172
0.012107078
-6.8078242e-05
0.012108453
-2.5313025e-05
0.011620253
0.010164082
-4.1033745e-06
0.00094917723
-1.5993201e-05
0.0027580209
-3.4973725e-05
0.0044377174
-6.0157433e-05
0.0059940449
-9.0179432e-05
0.0074304155
-0.00012252186
0.0087453218
-0.00015172469
0.0099257487
-0.0001658846
0.010930669
-0.00014970629
0.011673722
-0.00010629217
0.012063664
-5.8071522e-05
0.012060233
-2.119692e-05
0.011583378
0.010142885
-4.045497e-06
0.00095322273
-1.5761374e-05
0.0027697368
-3.4436919e-05
0.004456393
-5.9135103e-05
0.0060187431
-8.8360528e-05
0.0074596409
-0.00011925379
0.008776215
-0.00014551369
0.0099520086
-0.00015445694
0.010939612
-0.00013404494
0.01165331
-9.2406392e-05
0.012022025
-4.9608157e-05
0.012017435
-1.7811015e-05
0.011551581
0.010125074
-3.9906705e-06
0.0009572134
-1.5540649e-05
0.0027812868
-3.3920384e-05
0.0044747727
-5.8133471e-05
0.0060429561
-8.6528477e-05
0.0074880359
-0.00011583835
0.0088055249
-0.00013886507
0.0099750353
-0.00014270997
0.010943457
-0.00011937991
0.01162998
-8.0236231e-05
0.011982881
-4.2382125e-05
0.01197958
-1.4972586e-05
0.011524171
0.010110101
-3.938246e-06
0.00096115164
-1.5328322e-05
0.0027926768
-3.3417324e-05
0.0044928617
-5.7137748e-05
0.0060666766
-8.4651726e-05
0.0075155499
-0.00011221299
0.0088330861
-0.00013174064
0.009994563
-0.00013084741
0.010942564
-0.00010583199
0.011604964
-6.9555657e-05
0.011946605
-3.6155819e-05
0.011946181
-1.255151e-05
0.011500567
0.01009755
-3.8876948e-06
0.00096503934
-1.512212e-05
0.0028039113
-3.2921708e-05
0.0045106613
-5.613392e-05
0.0060898888
-8.2698664e-05
0.0075421146
-0.00010831969
0.0088587072
-0.00012414735
0.010010391
-0.00011909198
0.010937509
-9.3435698e-05
0.011579308
-6.0156889e-05
0.011913326
-3.0745122e-05
0.011916769
-1.0455499e-05
0.011480277
0.010087094
-3.8385568e-06
0.00096887789
-1.4919993e-05
0.0028149927
-3.2427784e-05
0.0045281691
-5.510785e-05
0.0061125688
-8.0636493e-05
0.0075676433
-0.00010410814
0.0088821788
-0.00011614034
0.010022423
-0.00010764918
0.010929017
-8.2162716e-05
0.011553821
-5.1858102e-05
0.011883022
-2.6007007e-05
0.011890918
-8.6187498e-06
0.011462889
0.010078476
-3.7904019e-06
0.0009726683
-1.471995e-05
0.0028259223
-3.1929704e-05
0.0045453789
-5.4044564e-05
0.0061346837
-7.8430836e-05
0.0075920295
-9.9540733e-05
0.0089032887
-0.00010781835
0.0100307
-9.6682479e-05
0.010917882
-7.1946842e-05
0.011529086
-4.4503957e-05
0.011855579
-2.1829743e-05
0.011868244
-6.9937034e-06
0.011448053
0.010071482
-3.7428e-06
0.0009764111
-1.4519945e-05
0.0028366994
-3.1421227e-05
0.0045622801
-5.2927707e-05
0.0061561902
-7.6046256e-05
0.0076151481
-9.4598625e-05
0.0089218411
-9.9310962e-05
0.010035413
-8.6303355e-05
0.010904874
-6.2703775e-05
0.011505486
-3.7963128e-05
0.011830838
-1.8125323e-05
0.011848406
-5.5452854e-06
0.011435473
0.010065937
-3.6952977e-06
0.00098010639
-1.4317763e-05
0.0028473219
-3.0895462e-05
0.0045788578
-5.1739148e-05
0.0061770339
-7.3447799e-05
0.0076368567
-8.9287315e-05
0.0089376806
-9.076048e-05
0.010036886
-7.657376e-05
0.010890687
-5.4344018e-05
0.011483256
-3.2125047e-05
0.011808619
-1.4823679e-05
0.011831104
-4.2469941e-06
0.011424896
0.01006169
-3.6473963e-06
0.00098375379
-1.4110936e-05
0.0028577854
-3.0344641e-05
0.0045950915
-5.0458783e-05
0.006197148
-7.0603634e-05
0.0076570016
-8.3639731e-05
0.0089507167
-8.2303596e-05
0.01003555
-6.7515798e-05
0.010875899
-4.6780161e-05
0.011462521
-2.6896726e-05
0.011788736
-1.1868354e-05
0.011816076
-3.0782543e-06
0.011416106
0.010058611
-3.5985288e-06
0.00098735232
-1.3896642e-05
0.0028680835
-2.9759895e-05
0.0046109548
-4.9064619e-05
0.0062164527
-6.7488583e-05
0.0076754255
-7.7715071e-05
0.0089609432
-7.4057335e-05
0.010031892
-5.9123306e-05
0.010860965
-3.9930392e-05
0.011443328
-2.2199852e-05
0.011771005
-9.2132803e-06
0.011803089
-2.0226592e-06
0.011408916
0.010056589
-3.5480256e-06
0.00099090035
-1.3671564e-05
0.0028782071
-2.9130949e-05
0.0046264142
-4.7533109e-05
0.0062348549
-6.4087908e-05
0.0076919803
-7.1592542e-05
0.0089684478
-6.6111086e-05
0.010026411
-5.1371377e-05
0.010846226
-3.3718968e-05
0.011425676
-1.7967092e-05
0.011755253
-6.819189e-06
0.011791942
-1.0665703e-06
0.011403163
0.010055522
-3.4950998e-06
0.00099439545
-1.343182e-05
0.0028881438
-2.8446031e-05
0.0046414284
-4.5840364e-05
0.0062522492
-6.04013e-05
0.0077065413
-6.5362287e-05
0.0089734088
-5.8525779e-05
0.010019574
-4.4224377e-05
0.010831924
-2.8076921e-05
0.011409528
-1.4140027e-05
0.011741316
-4.6491632e-06
0.011782451
-1.6922326e-07
0.011398683
0.010055353
-3.4388796e-06
0.00099783432
-1.3173131e-05
0.002897878
-2.7692439e-05
0.0046559477
-4.3964994e-05
0.0062685218
-5.6447127e-05
0.0077190234
-5.9117558e-05
0.0089760792
-5.1340491e-05
0.010011797
-3.7645558e-05
0.010818229
-2.2947463e-05
0.01139483
-1.0674761e-05
0.011729044
-2.681093e-06
0.011774457
6.6545076e-07
0.011395337
0.010056018
-3.378315e-06
0.0010012126
-1.2890438e-05
0.0029073902
-2.6855996e-05
0.0046699133
-4.1889312e-05
0.0062835551
-5.2260839e-05
0.0077293949
-5.294343e-05
0.0089767618
-4.4574254e-05
0.010003428
-3.1595996e-05
0.010805251
-1.827961e-05
0.011381514
-7.5311721e-06
0.011718295
-8.8302077e-07
0.011767809
1.4049933e-06
0.011393049
0.010057423
-3.3120983e-06
0.0010045247
-1.2577617e-05
0.0029166557
-2.5921007e-05
0.0046832566
-3.9601335e-05
0.0062972354
-4.7891274e-05
0.0077376849
-4.6909586e-05
0.0089757801
-3.8229287e-05
0.0099947476
-2.6033926e-05
0.010793056
-1.4024268e-05
0.011369504
-4.6695347e-06
0.011708941
7.7466629e-07
0.011762365
2.0667341e-06
0.011391757
0.01005949
-3.2386929e-06
0.0010077634
-1.2227714e-05
0.0029256447
-2.4871687e-05
0.0046959006
-3.7098719e-05
0.0063094625
-4.3397668e-05
0.0077439838
-4.1070817e-05
0.0089734533
-3.2299147e-05
0.0099859759
-2.0920731e-05
0.010781677
-1.0139949e-05
0.011358723
-2.0591293e-06
0.01170086
2.2779999e-06
0.011758028
2.6638794e-06
0.011391371
0.010062154
-3.1562772e-06
0.0010109197
-1.1832823e-05
0.0029343212
-2.3693039e-05
0.0047077608
-3.4390256e-05
0.0063201597
-3.8842819e-05
0.0077484364
-3.5466333e-05
0.0089700768
-2.6770492e-05
0.0099772801
-1.6218818e-05
0.010771126
-6.5853487e-06
0.01134909
3.475136e-07
0.011693927
3.632248e-06
0.011754743
3.2023321e-06
0.011391801
0.010065356
-3.062712e-06
0.0010139824
-1.1384179e-05
0.0029426427
-2.2372405e-05
0.0047187491
-3.1496505e-05
0.0063292838
-3.4287363e-05
0.0077512272
-3.0121873e-05
0.0089659113
-2.162595e-05
0.0099687841
-1.1894074e-05
0.010761394
-3.3303426e-06
0.011340526
2.551073e-06
0.011688046
4.8616565e-06
0.011752432
3.6898345e-06
0.011392972
0.010069046
-2.955534e-06
0.001016938
-1.0872489e-05
0.0029505597
-2.0901464e-05
0.004728778
-2.844895e-05
0.0063368313
-2.9785805e-05
0.0077525641
-2.5052616e-05
0.0089611781
-1.684549e-05
0.009960577
-7.9112444e-06
0.01075246
-3.2675459e-07
0.011332941
4.54338e-06
0.011683175
5.9753455e-06
0.011751
4.131316e-06
0.011394816
0.010073178
-2.8319479e-06
0.0010197699
-1.0288359e-05
0.0029580161
-1.9277899e-05
0.0047377676
-2.5286907e-05
0.0063428403
-2.5383506e-05
0.0077526607
-2.0265014e-05
0.0089560596
-1.2407979e-05
0.00995272
-4.2418975e-06
0.010744293
2.4380113e-06
0.011326262
6.3569928e-06
0.011679256
6.9857662e-06
0.011750372
4.5313219e-06
0.011397271
0.010077709
-2.6889073e-06
0.0010224588
-9.6232127e-06
0.0029649504
-1.7507133e-05
0.0047456515
-2.2054219e-05
0.0063473874
-2.1116481e-05
0.0077517229
-1.5759133e-05
0.0089507023
-8.2896859e-06
0.0099452505
-8.4672039e-07
0.010736851
4.9536699e-06
0.011320461
8.0064822e-06
0.011676204
7.903073e-06
0.011750475
4.8939895e-06
0.01140028
0.010082603
-2.5232507e-06
0.0010249821
-8.8703659e-06
0.0029712975
-1.5602916e-05
0.004752384
-1.8795229e-05
0.0063505797
-1.7011667e-05
0.0077499394
-1.1530737e-05
0.0089452214
-4.470035e-06
0.0099381898
2.2909459e-06
0.01073009
7.2494936e-06
0.011315503
9.5068712e-06
0.011673946
8.7354311e-06
0.011751246
5.2223299e-06
0.011403793
0.010087825
-2.3319752e-06
0.001027314
-8.0264266e-06
0.002976992
-1.3587012e-05
0.0047579446
-1.5551706e-05
0.0063525444
-1.3087802e-05
0.0077474755
-7.5700584e-06
0.0089397036
-9.1687306e-07
0.0099315367
5.1653292e-06
0.010724007
9.3448466e-06
0.011311323
1.0871949e-05
0.011672419
9.4906031e-06
0.011752628
5.519343e-06
0.011407764
0.010093345
-2.112655e-06
0.0010294267
-7.0926627e-06
0.002981972
-1.1487684e-05
0.0047623396
-1.2360769e-05
0.0063534175
-9.3574549e-06
0.0077444722
-3.868104e-06
0.0089342143
2.3811833e-06
0.0099252874
7.7971141e-06
0.010718591
1.1256313e-05
0.011307864
1.2113242e-05
0.011671562
1.0174991e-05
0.011754566
5.7874255e-06
0.011412152
0.010099132
-1.8640277e-06
0.0010312907
-6.0761535e-06
0.0029861841
-9.3374815e-06
0.004765601
-9.253598e-06
0.0063533336
-5.825593e-06
0.0077410442
-4.0088443e-07
0.0089287896
5.4171404e-06
0.0099194693
1.0206073e-05
0.010713802
1.2999122e-05
0.011305071
1.3241024e-05
0.01167132
1.0794271e-05
0.011757013
6.0287197e-06
0.011416917
0.010105161
-1.5866529e-06
0.0010328774
-4.990241e-06
0.0029895877
-7.1706344e-06
0.0047677814
-6.255278e-06
0.0063524182
-2.4927433e-06
0.0077372816
2.8316802e-06
0.0089234651
8.2067927e-06
0.0099140942
1.2408942e-05
0.0107096
1.4586639e-05
0.011302893
1.4264265e-05
0.011671643
1.1353362e-05
0.011759924
6.2450687e-06
0.011422026
0.010111406
-1.2835185e-06
0.0010341609
-3.8541858e-06
0.0029921583
-5.0207837e-06
0.004768948
-3.3849476e-06
0.0063507824
6.4622401e-07
0.0077332505
5.815382e-06
0.008918296
1.0765936e-05
0.0099091437
1.4420846e-05
0.010705945
1.6030833e-05
0.011301283
1.5191006e-05
0.011672482
1.1856704e-05
0.011763258
6.4381636e-06
0.011427444
0.010117844
-9.6035097e-07
0.0010351212
-2.6918239e-06
0.0029938898
-2.9183404e-06
0.0047691745
-6.506021e-07
0.0063485146
3.5782644e-06
0.0077290216
8.5629359e-06
0.0089133113
1.3108587e-05
0.009904598
1.6254543e-05
0.010702799
1.734154e-05
0.011300196
1.6027696e-05
0.011673796
1.2307728e-05
0.011766978
6.6092264e-06
0.011433143
0.010124453
-6.2535314e-07
0.0010357466
-1.5291174e-06
0.0029947936
-8.8736083e-07
0.0047685327
1.9291075e-06
0.0063456982
6.2873324e-06
0.0077246634
1.1084086e-05
0.0089085146
1.5247515e-05
0.0099004346
1.7921735e-05
0.010700125
1.8527765e-05
0.01129959
1.6780263e-05
0.011675544
1.2709644e-05
0.011771049
6.7594535e-06
0.011439093
0.010131213
-2.8821848e-07
0.0010360348
-3.9067556e-07
0.002994896
1.0457173e-06
0.0047670963
4.3266836e-06
0.0063424172
8.7771352e-06
0.0077202129
1.3387473e-05
0.0089039042
1.7193149e-05
0.0098966289
1.9431857e-05
0.010697887
1.9596643e-05
0.011299425
1.7453274e-05
0.011677687
1.3064796e-05
0.011775437
6.8896376e-06
0.011445268
0.010138102
4.0781568e-08
0.001035994
6.966602e-07
0.0029942402
2.8486022e-06
0.0047649444
6.5296177e-06
0.0063387362
1.1049532e-05
0.007715693
1.5480316e-05
0.0088994734
1.8954082e-05
0.0098931552
2.0792569e-05
0.010696048
2.0553861e-05
0.011299664
1.8050256e-05
0.011680191
1.3374903e-05
0.011780112
7.0002865e-06
0.011451643
0.010145102
3.5067457e-07
0.0010356434
1.704869e-06
0.002992886
4.497094e-06
0.0047621522
8.5307943e-06
0.0063347025
1.3105734e-05
0.0077111181
1.7368031e-05
0.0088952111
2.0536759e-05
0.0098899864
2.2009503e-05
0.010694575
2.1403429e-05
0.01130027
1.8573511e-05
0.011683021
1.3640907e-05
0.011785045
7.0915661e-06
0.011458192
0.010152194
6.3199379e-07
0.0010350114
2.6137985e-06
0.0029909042
5.9772008e-06
0.0047587888
1.0324519e-05
0.0063303552
1.4946294e-05
0.0077064963
1.9054278e-05
0.0088911032
2.1945535e-05
0.0098870952
2.3086298e-05
0.010693435
2.2147691e-05
0.011301209
1.9024083e-05
0.011686144
1.3862939e-05
0.011790206
7.163248e-06
0.011464892
0.010159357
8.787632e-07
0.0010341326
3.4113828e-06
0.0029883715
7.2795505e-06
0.0047549206
1.1906912e-05
0.0063257278
1.6571502e-05
0.0077018317
2.0541352e-05
0.0088871333
2.3182995e-05
0.0098844535
2.4024844e-05
0.010692593
2.2787488e-05
0.011302446
1.940189e-05
0.01168953
1.4040396e-05
0.011795568
7.2147707e-06
0.011471717
0.010166572
1.087902e-06
0.0010330447
4.0915537e-06
0.0029853679
8.3995082e-06
0.0047506126
1.3276252e-05
0.0063208511
1.7981829e-05
0.0076971261
2.1830608e-05
0.0088832845
2.4250311e-05
0.0098820338
2.4825555e-05
0.010692017
2.3322362e-05
0.011303949
1.9705828e-05
0.011693146
1.4171999e-05
0.011801101
7.2452389e-06
0.011478644
0.010173817
1.2588962e-06
0.0010317858
4.6536614e-06
0.0029819731
9.3370858e-06
0.0047459292
1.4433331e-05
0.0063157548
1.9178446e-05
0.007692381
2.2922978e-05
0.00887954
2.5147685e-05
0.0098798091
2.5487706e-05
0.010691677
2.3750783e-05
0.011305686
1.9933942e-05
0.011696963
1.4255907e-05
0.011806779
7.2535045e-06
0.011485647
0.010181071
1.3932145e-06
0.0010303926
5.1015157e-06
0.0029782648
1.0096598e-05
0.0047409341
1.5381715e-05
0.0063104697
2.0163776e-05
0.0076875989
2.3819588e-05
0.0088758842
2.5874915e-05
0.0098777538
2.6009919e-05
0.010691542
2.4070548e-05
0.011307626
2.0083705e-05
0.01170095
1.428988e-05
0.011812573
7.2382237e-06
0.011492698
0.010188309
1.4936561e-06
0.0010288989
5.4422412e-06
0.0029743162
1.0686068e-05
0.0047356903
1.6127814e-05
0.006305028
2.0941935e-05
0.0076827848
2.4522325e-05
0.0088723038
2.6431958e-05
0.0098758442
2.639065e-05
0.010691584
2.4279149e-05
0.011309737
2.0152304e-05
0.011705077
1.4271487e-05
0.011818454
7.1979864e-06
0.011499772
0.010195507
1.5637656e-06
0.0010273352
5.6851406e-06
0.0029701949
1.111647e-05
0.004730259
1.6680756e-05
0.0062994637
2.1519047e-05
0.0076779465
2.503437e-05
0.0088687885
2.6819523e-05
0.009874059
2.6628748e-05
0.010691774
2.4374285e-05
0.011311992
2.0137028e-05
0.011709314
1.4198364e-05
0.011824393
7.1314056e-06
0.011506839
0.010202638
1.6073748e-06
0.0010257278
5.8406866e-06
0.0029659615
1.1400874e-05
0.0047246988
1.7052045e-05
0.0062938125
2.1903339e-05
0.0076730952
2.5360534e-05
0.0088653313
2.7039501e-05
0.00987238
2.6723907e-05
0.01069209
2.4354248e-05
0.011314361
2.0035603e-05
0.011713633
1.4068461e-05
0.01183036
7.0373071e-06
0.01151387
0.010209676
1.6282871e-06
0.0010240995
5.9197204e-06
0.0029616701
1.1553624e-05
0.0047190649
1.7255097e-05
0.006288111
2.2105075e-05
0.0076682453
2.550749e-05
0.0088619289
2.7095367e-05
0.0098707922
2.6677115e-05
0.010692508
2.4218376e-05
0.01131682
1.9846564e-05
0.011718005
1.3880307e-05
0.011836326
6.9148112e-06
0.011520835
0.010216591
1.6300814e-06
0.0010224694
5.932865e-06
0.0029573673
1.1589597e-05
0.0047134082
1.7304685e-05
0.0062823959
2.2136315e-05
0.0076634136
2.5483785e-05
0.0088585814
2.6992353e-05
0.0098692836
2.6490924e-05
0.01069301
2.3967333e-05
0.011319344
1.9569526e-05
0.011722403
1.3633227e-05
0.011842262
6.7634918e-06
0.011527705
0.010223354
1.6160086e-06
0.0010208534
5.8901413e-06
0.0029530932
1.1523602e-05
0.0047077747
1.7216388e-05
0.0062767032
2.2010578e-05
0.0076586194
2.5299743e-05
0.0088552922
2.673754e-05
0.0098678458
2.6169652e-05
0.010693578
2.3603376e-05
0.01132191
1.9205433e-05
0.0117268
1.3327522e-05
0.01184814
6.5834382e-06
0.011534449
0.010229937
1.5889503e-06
0.0010192645
5.8007417e-06
0.0029488814
1.136992e-05
0.0047022055
1.7006066e-05
0.006271067
2.1742426e-05
0.0076538831
2.4967218e-05
0.0088520674
2.6339759e-05
0.0098664733
2.5719395e-05
0.010694198
2.3130426e-05
0.011324499
1.8756661e-05
0.011731174
1.2964583e-05
0.011853932
6.3753549e-06
0.011541038
0.010236313
1.5514178e-06
0.001017713
5.6729288e-06
0.0029447599
1.114199e-05
0.0046967365
1.668942e-05
0.0062655196
2.1347048e-05
0.0076492255
2.4499289e-05
0.0088489152
2.5809425e-05
0.0098651631
2.5147979e-05
0.010694859
2.2554096e-05
0.011327093
1.8227082e-05
0.011735501
1.2546927e-05
0.011859613
6.1405488e-06
0.011547445
0.010242453
1.5055732e-06
0.0010162075
5.5140156e-06
0.0029407515
1.0852215e-05
0.0046913983
1.6281638e-05
0.0062600902
2.0839854e-05
0.0076446672
2.39099e-05
0.0088458451
2.5158257e-05
0.0098639148
2.4464755e-05
0.010695553
2.188156e-05
0.011329676
1.7621984e-05
0.011739761
1.2078175e-05
0.011865156
5.8809469e-06
0.011553642
0.010248334
1.4532624e-06
0.0010147542
5.3304007e-06
0.0029368743
1.051187e-05
0.0046862168
1.5797132e-05
0.0062548049
2.0236131e-05
0.0076402282
2.3213514e-05
0.0088428678
2.4398977e-05
0.0098627293
2.3680378e-05
0.010696272
2.1121395e-05
0.011332235
1.6947959e-05
0.011743934
1.1562952e-05
0.011870541
5.5990049e-06
0.011559606
0.010253933
1.3960505e-06
0.0010133582
5.1276301e-06
0.0029331427
1.0131067e-05
0.0046812134
1.524935e-05
0.0062496866
1.9550724e-05
0.0076359269
2.2424739e-05
0.0088399937
2.3544946e-05
0.0098616091
2.2806467e-05
0.01069701
2.0283286e-05
0.011334758
1.6212677e-05
0.011748005
1.1006744e-05
0.011875747
5.2976703e-06
0.011565315
0.010259231
1.3352588e-06
0.0010120229
4.9104788e-06
0.0029295675
9.7187895e-06
0.004676405
1.465068e-05
0.0062447547
1.879782e-05
0.0076317797
2.1558046e-05
0.0088372335
2.2609861e-05
0.0098605573
2.1855322e-05
0.010697765
1.9377788e-05
0.011337236
1.5424663e-05
0.011751958
1.0415711e-05
0.011880756
4.9802374e-06
0.01157075
0.010264211
1.2719979e-06
0.0010107509
4.6830316e-06
0.0029261565
9.2829418e-06
0.0046718051
1.4012383e-05
0.0062400253
1.7990756e-05
0.0076278014
2.0627478e-05
0.0088345968
2.160741e-05
0.0098595773
2.0839565e-05
0.010698532
1.8415956e-05
0.011339659
1.4593003e-05
0.011755781
9.7964795e-06
0.011885553
4.6502627e-06
0.011575897
0.010268862
1.2071988e-06
0.0010095437
4.4487681e-06
0.0029229149
8.830431e-06
0.0046674235
1.3344603e-05
0.0062355111
1.7141919e-05
0.007624004
1.9646465e-05
0.0088320923
2.0551038e-05
0.0098586728
1.9771877e-05
0.010699312
1.7409123e-05
0.011342022
1.3727114e-05
0.011759463
9.1559281e-06
0.011890124
4.3114009e-06
0.011580741
0.010273173
1.1416383e-06
0.0010084021
4.2106343e-06
0.0029198459
8.3672438e-06
0.0046632669
1.2656376e-05
0.006231222
1.6262653e-05
0.0076203978
1.8627626e-05
0.0088297273
1.9453667e-05
0.0098578467
1.8664686e-05
0.010700101
1.6368538e-05
0.011344318
1.2836432e-05
0.011762995
8.5009847e-06
0.011894459
3.9673444e-06
0.011585275
0.01027714
1.075963e-06
0.0010073261
3.9711151e-06
0.0029169508
7.8985394e-06
0.0046593394
1.1955686e-05
0.0062271648
1.5363242e-05
0.0076169902
1.7582676e-05
0.0088275078
1.8327544e-05
0.0098571019
1.7529965e-05
0.010700898
1.5305182e-05
0.011346543
1.1930219e-05
0.01176637
7.8384317e-06
0.011898551
3.6216663e-06
0.011589492
0.010280762
1.0107081e-06
0.0010063154
3.7322947e-06
0.0029142292
7.4287322e-06
0.004655643
1.1249528e-05
0.006223344
1.4452907e-05
0.0076137868
1.6522344e-05
0.0088254384
1.7184086e-05
0.0098564401
1.6379033e-05
0.010701703
1.4229523e-05
0.011348692
1.1017343e-05
0.011769582
7.1747517e-06
0.011902394
3.2777523e-06
0.011593389
0.01028404
9.4631445e-07
0.0010053691
3.49591e-06
0.0029116796
6.9615714e-06
0.0046521773
1.0543972e-05
0.0062197616
1.3539822e-05
0.007610791
1.5456325e-05
0.0088235219
1.6033775e-05
0.0098558627
1.5222402e-05
0.010702515
1.3151351e-05
0.011350763
1.0106105e-05
0.011772627
6.5159855e-06
0.011905984
2.9387385e-06
0.011596966
0.010286978
8.8314297e-07
0.0010044859
3.2634002e-06
0.0029092993
6.5002212e-06
0.0046489405
9.8442487e-06
0.0062164176
1.2631175e-05
0.007608004
1.4393293e-05
0.0088217598
1.4886124e-05
0.0098553698
1.4069708e-05
0.010703331
1.2079686e-05
0.011352753
9.2041476e-06
0.011775503
5.8676458e-06
0.01190932
2.607424e-06
0.011600226
0.010289586
8.2148601e-07
0.0010036645
3.0359462e-06
0.0029070849
6.047325e-06
0.0046459291
9.1548127e-06
0.0062133101
1.1733201e-05
0.0076054257
1.3340895e-05
0.0088201521
1.3749616e-05
0.0098549611
1.2929606e-05
0.010704151
1.1022644e-05
0.01135466
8.318324e-06
0.011778207
5.2346356e-06
0.011912404
2.2862778e-06
0.011603174
0.010291872
7.6157827e-07
0.0010029029
2.8145076e-06
0.0029050319
5.6050718e-06
0.0046431386
8.4794287e-06
0.0062104358
1.0851267e-05
0.0076030538
1.2305812e-05
0.0088186975
1.2631746e-05
0.0098546352
1.1809792e-05
0.010704973
9.9874561e-06
0.011356483
7.4546979e-06
0.01178074
4.6212244e-06
0.011915238
1.9773791e-06
0.011605818
0.010293849
7.0360465e-07
0.0010021993
2.5998525e-06
0.0029031357
5.1752493e-06
0.0046405632
7.8212323e-06
0.0062077898
9.9899207e-06
0.0076008851
1.1293779e-05
0.0088173937
1.1539009e-05
0.0098543899
1.0716958e-05
0.010705795
8.9803845e-06
0.011358219
6.6184859e-06
0.011783102
4.0310306e-06
0.011917825
1.6824694e-06
0.011608167
0.010295532
6.477083e-07
0.0010015516
2.392586e-06
0.0029013908
4.7592984e-06
0.0046381965
7.1828061e-06
0.0062053663
9.1529761e-06
0.007598915
1.0309675e-05
0.008816237
1.0476969e-05
0.0098542227
9.6568545e-06
0.010706615
8.0067973e-06
0.011359869
5.8140941e-06
0.011785295
3.4670345e-06
0.011920172
1.4029077e-06
0.011610231
0.010296935
5.939964e-07
0.0010009576
2.193172e-06
0.0028997916
4.358355e-06
0.0046360313
6.5662368e-06
0.0062031584
8.3435724e-06
0.0075971376
9.357565e-06
0.008815223
9.4502999e-06
0.0098541299
8.6343095e-06
0.010707431
7.0711626e-06
0.011361433
5.0451329e-06
0.011787321
2.9316066e-06
0.011922286
1.1397326e-06
0.011612023
0.010298075
5.4254546e-07
0.001000415
2.0019531e-06
0.0028983322
3.9732898e-06
0.0046340599
5.9731712e-06
0.0062011585
7.5642413e-06
0.0075955466
8.440772e-06
0.0088143465
8.4628383e-06
0.0098541078
7.6532783e-06
0.010708241
6.1770989e-06
0.011362909
4.3144544e-06
0.011789183
2.4265392e-06
0.011924174
8.9367094e-07
0.011613556
0.010298968
4.9340608e-07
0.00099992161
1.819168e-06
0.0028970065
3.6047439e-06
0.0046322744
5.4048715e-06
0.0061993584
6.8169721e-06
0.0075941345
7.5619449e-06
0.0088136015
7.5176611e-06
0.0098541521
6.7169157e-06
0.010709041
5.327445e-06
0.011364298
3.6242146e-06
0.011790887
1.9530933e-06
0.011925845
6.651562e-07
0.011614844
0.010299633
4.4660678e-07
0.000999475
1.6449676e-06
0.0028958081
3.2531601e-06
0.0046306662
4.8622606e-06
0.0061977493
6.1032699e-06
0.0075928934
6.7231212e-06
0.0088129816
6.6171401e-06
0.0098542581
5.8276278e-06
0.010709831
4.5242996e-06
0.011365601
2.9759229e-06
0.011792435
1.5120564e-06
0.011927309
4.5439137e-07
0.011615901
0.010300088
4.0215877e-07
0.00099907284
1.4794318e-06
0.0028947308
2.9188214e-06
0.0046292268
4.3459858e-06
0.0061963221
5.4242415e-06
0.0075918152
5.9258345e-06
0.00881248
5.7630727e-06
0.0098544209
4.9872207e-06
0.010710607
3.7691988e-06
0.011366819
2.370622e-06
0.011793834
1.1039165e-06
0.011928575
2.6148622e-07
0.011616744
0.010300349
3.6005888e-07
0.00099871279
1.3225824e-06
0.0028937683
2.6018774e-06
0.0046279475
3.8564622e-06
0.0061950675
4.7806562e-06
0.007590891
5.1711901e-06
0.0088120895
4.9567673e-06
0.0098546353
4.1969953e-06
0.010711367
3.0632193e-06
0.011367953
1.8090278e-06
0.011795088
7.2923209e-07
0.011929655
8.8940493e-08
0.011617384
0.010300438
3.2028616e-07
0.0009983925
1.1743679e-06
0.0028929142
2.3023088e-06
0.0046268196
3.3938044e-06
0.006193976
4.1728309e-06
0.007590112
4.4596868e-06
0.0088118027
4.1987874e-06
0.0098548962
3.4574034e-06
0.010712108
2.4065188e-06
0.011369004
1.2909571e-06
0.011796203
3.8772276e-07
0.011930558
-6.2281751e-08
0.011617834
0.010300376
2.8280488e-07
0.0009981097
1.0346756e-06
0.0028921624
2.0199536e-06
0.0046258343
2.9578732e-06
0.0061930381
3.6007002e-06
0.0075894691
3.7913115e-06
0.008811612
3.4890736e-06
0.0098551984
2.7682053e-06
0.010712829
1.7986394e-06
0.011369974
8.1607327e-07
0.011797186
8.1433372e-08
0.011931293