/*--------------------------------*- C++ -*----------------------------------*\
| =========                 |                                                 |
| \\      /  F ield         | OpenFOAM: The Open Source CFD Toolbox           |
|  \\    /   O peration     | Version:  2506                                  |
|   \\  /    A nd           | Website:  www.openfoam.com                      |
|    \\/     M anipulation  |                                                 |
\*---------------------------------------------------------------------------*/
FoamFile
{
    version     2.0;
    format      ascii;
    arch        "LSB;label=32;scalar=64";
    class       volScalarField;
    location    "6000/water";
    object      T;
}
// * * * * * * * * * * * * * * * * * * * * * * * * * * * * * * * * * * * * * //

dimensions      [0 0 0 1 0 0 0];

internalField   nonuniform List<scalar> 
2600
(
333.15
333.15
333.15
333.15
333.15
333.15
333.15
333.14999
333.14998
333.14991
333.14959
333.14804
333.13783
333.15
333.15
333.15
333.15
333.15
333.15
333.14999
333.14998
333.14992
333.14971
333.14893
333.14549
333.12878
333.15
333.15
333.15
333.15
333.15
333.15
333.14999
333.14995
333.14983
333.14942
333.14806
333.14258
333.12148
333.15
333.15
333.15
333.15
333.15
333.14999
333.14997
333.1499
333.14969
333.14905
333.14703
333.13947
333.1153
333.15
333.15
333.15
333.15
333.14999
333.14998
333.14994
333.14983
333.14951
333.14861
333.14585
333.13627
333.10995
333.15
333.15
333.15
333.15
333.14999
333.14997
333.14991
333.14974
333.1493
333.14809
333.14452
333.13305
333.10527
333.15
333.15
333.15
333.14999
333.14998
333.14995
333.14987
333.14963
333.14904
333.14751
333.14305
333.12988
333.10118
333.15
333.15
333.15
333.14999
333.14998
333.14993
333.14981
333.1495
333.14876
333.14684
333.14144
333.12681
333.09764
333.15
333.15
333.15
333.14999
333.14996
333.1499
333.14974
333.14935
333.14843
333.14608
333.13967
333.12387
333.09461
333.15
333.15
333.14999
333.14998
333.14995
333.14987
333.14966
333.14918
333.14805
333.14522
333.13776
333.12112
333.09205
333.15
333.15
333.14999
333.14997
333.14993
333.14983
333.14957
333.14898
333.14762
333.14423
333.13575
333.11857
333.08991
333.15
333.14999
333.14999
333.14996
333.14991
333.14978
333.14946
333.14876
333.14713
333.14311
333.13367
333.11625
333.08815
333.14999
333.14999
333.14998
333.14995
333.14988
333.14972
333.14934
333.1485
333.14656
333.14185
333.13157
333.11416
333.08669
333.14999
333.14999
333.14998
333.14994
333.14985
333.14965
333.1492
333.1482
333.1459
333.14047
333.12952
333.11228
333.0855
333.14999
333.14999
333.14997
333.14992
333.14982
333.14957
333.14904
333.14786
333.14514
333.13898
333.12755
333.11061
333.08451
333.14999
333.14998
333.14996
333.1499
333.14977
333.14949
333.14886
333.14746
333.14427
333.13743
333.12569
333.10911
333.08368
333.14999
333.14998
333.14995
333.14988
333.14973
333.14938
333.14864
333.147
333.1433
333.13584
333.12396
333.10777
333.08298
333.14998
333.14997
333.14994
333.14985
333.14967
333.14927
333.1484
333.14646
333.14223
333.13425
333.12235
333.10657
333.08239
333.14998
333.14996
333.14992
333.14982
333.1496
333.14913
333.14811
333.14585
333.14107
333.1327
333.12088
333.10549
333.08189
333.14997
333.14995
333.1499
333.14979
333.14953
333.14898
333.14778
333.14515
333.13986
333.1312
333.11951
333.10451
333.08145
333.14996
333.14994
333.14988
333.14974
333.14944
333.14879
333.14739
333.14437
333.1386
333.12977
333.11826
333.10362
333.08107
333.14995
333.14993
333.14986
333.1497
333.14934
333.14858
333.14695
333.14351
333.13733
333.12841
333.1171
333.10282
333.08074
333.14994
333.14991
333.14983
333.14964
333.14923
333.14834
333.14644
333.14258
333.13607
333.12712
333.11604
333.10208
333.08045
333.14993
333.1499
333.1498
333.14958
333.14909
333.14806
333.14586
333.14159
333.13483
333.12591
333.11505
333.1014
333.08019
333.14992
333.14988
333.14976
333.1495
333.14894
333.14773
333.14521
333.14057
333.13362
333.12477
333.11413
333.10078
333.07997
333.1499
333.14985
333.14972
333.14941
333.14876
333.14735
333.1445
333.13952
333.13245
333.1237
333.11327
333.1002
333.07977
333.14988
333.14983
333.14967
333.14931
333.14854
333.14692
333.14373
333.13846
333.13133
333.12269
333.11248
333.09967
333.07959
333.14986
333.1498
333.14961
333.14919
333.1483
333.14643
333.1429
333.13741
333.13025
333.12174
333.11173
333.09918
333.07944
333.14984
333.14976
333.14954
333.14905
333.14801
333.14588
333.14204
333.13637
333.12922
333.12085
333.11103
333.09872
333.0793
333.14981
333.14972
333.14946
333.14889
333.14769
333.14528
333.14115
333.13535
333.12824
333.12
333.11038
333.09829
333.07918
333.14977
333.14967
333.14937
333.14871
333.14731
333.14462
333.14025
333.13436
333.1273
333.1192
333.10976
333.09788
333.07908
333.14973
333.14961
333.14926
333.14849
333.14689
333.14392
333.13933
333.13339
333.1264
333.11844
333.10917
333.09751
333.07898
333.14968
333.14954
333.14913
333.14823
333.14641
333.14317
333.13842
333.13245
333.12554
333.11772
333.10862
333.09715
333.0789
333.14963
333.14946
333.14898
333.14794
333.14588
333.1424
333.13751
333.13154
333.12472
333.11703
333.1081
333.09682
333.07883
333.14956
333.14936
333.1488
333.14761
333.14531
333.1416
333.13662
333.13067
333.12394
333.11638
333.1076
333.09651
333.07876
333.14948
333.14925
333.1486
333.14722
333.14469
333.14079
333.13574
333.12982
333.12319
333.11576
333.10713
333.09621
333.07871
333.14939
333.14911
333.14836
333.1468
333.14403
333.13997
333.13487
333.129
333.12247
333.11516
333.10668
333.09593
333.07865
333.14928
333.14896
333.14808
333.14632
333.14333
333.13914
333.13403
333.12821
333.12178
333.11459
333.10625
333.09566
333.07861
333.14915
333.14877
333.14776
333.14579
333.14261
333.13832
333.1332
333.12745
333.12111
333.11405
333.10584
333.0954
333.07857
333.149
333.14855
333.1474
333.14522
333.14187
333.13751
333.1324
333.12671
333.12047
333.11353
333.10545
333.09516
333.07853
333.14881
333.1483
333.14699
333.14462
333.14111
333.1367
333.13162
333.126
333.11986
333.11303
333.10508
333.09492
333.07849
333.14859
333.148
333.14653
333.14397
333.14035
333.1359
333.13085
333.12531
333.11926
333.11254
333.10471
333.0947
333.07846
333.14833
333.14766
333.14602
333.14329
333.13958
333.13512
333.13011
333.12464
333.11869
333.11208
333.10436
333.09448
333.07843
333.14802
333.14726
333.14546
333.14259
333.1388
333.13434
333.12938
333.124
333.11814
333.11163
333.10403
333.09427
333.0784
333.14766
333.14681
333.14486
333.14187
333.13803
333.13358
333.12868
333.12337
333.11761
333.11119
333.1037
333.09407
333.07837
333.14724
333.1463
333.14422
333.14113
333.13726
333.13284
333.12799
333.12276
333.11709
333.11077
333.10339
333.09387
333.07833
333.14675
333.14574
333.14354
333.14037
333.13649
333.1321
333.12732
333.12217
333.11659
333.11037
333.10308
333.09368
333.0783
333.1462
333.14512
333.14283
333.13961
333.13573
333.13138
333.12667
333.1216
333.1161
333.10997
333.10278
333.09349
333.07827
333.14558
333.14445
333.14209
333.13884
333.13498
333.13068
333.12603
333.12104
333.11562
333.10958
333.10249
333.09331
333.07824
333.14489
333.14372
333.14132
333.13806
333.13423
333.12999
333.12541
333.12049
333.11516
333.10921
333.10221
333.09313
333.0782
333.14414
333.14295
333.14053
333.13728
333.13349
333.1293
333.1248
333.11996
333.11471
333.10884
333.10193
333.09295
333.07816
333.14334
333.14213
333.13972
333.1365
333.13276
333.12863
333.1242
333.11944
333.11427
333.10848
333.10165
333.09277
333.07812
333.14248
333.14129
333.13889
333.13572
333.13203
333.12798
333.12362
333.11893
333.11384
333.10813
333.10138
333.0926
333.07808
333.14159
333.14041
333.13806
333.13493
333.13131
333.12733
333.12304
333.11843
333.11341
333.10778
333.10112
333.09242
333.07803
333.14066
333.13951
333.13721
333.13415
333.1306
333.12669
333.12247
333.11794
333.113
333.10744
333.10086
333.09225
333.07798
333.13971
333.13859
333.13635
333.13337
333.12989
333.12605
333.12192
333.11746
333.11259
333.10711
333.1006
333.09207
333.07792
333.13875
333.13767
333.13549
333.13259
333.12918
333.12543
333.12137
333.11698
333.11218
333.10677
333.10034
333.0919
333.07786
333.13777
333.13673
333.13463
333.13181
333.12849
333.12481
333.12082
333.11651
333.11179
333.10645
333.10008
333.09172
333.07779
333.1368
333.1358
333.13377
333.13103
333.1278
333.1242
333.12029
333.11605
333.11139
333.10612
333.09983
333.09154
333.07772
333.13583
333.13487
333.13291
333.13026
333.12711
333.12359
333.11976
333.11559
333.111
333.1058
333.09957
333.09136
333.07765
333.13486
333.13394
333.13206
333.12949
333.12643
333.12299
333.11923
333.11513
333.11061
333.10547
333.09932
333.09118
333.07756
333.13391
333.13302
333.13122
333.12873
333.12575
333.12239
333.11871
333.11468
333.11022
333.10515
333.09906
333.09099
333.07747
333.13296
333.13212
333.13038
333.12798
333.12508
333.1218
333.11819
333.11423
333.10984
333.10483
333.0988
333.0908
333.07738
333.13204
333.13123
333.12956
333.12723
333.12442
333.12122
333.11768
333.11379
333.10946
333.10451
333.09854
333.09061
333.07727
333.13113
333.13035
333.12874
333.1265
333.12376
333.12064
333.11717
333.11334
333.10908
333.10419
333.09828
333.09041
333.07716
333.13023
333.12949
333.12794
333.12577
333.12311
333.12006
333.11666
333.1129
333.10869
333.10386
333.09801
333.09021
333.07704
333.12936
333.12864
333.12715
333.12505
333.12247
333.11949
333.11616
333.11246
333.10831
333.10354
333.09774
333.09
333.07692
333.1285
333.12781
333.12638
333.12435
333.12183
333.11893
333.11566
333.11202
333.10793
333.10321
333.09747
333.08979
333.07678
333.12766
333.127
333.12562
333.12365
333.12121
333.11837
333.11516
333.11158
333.10755
333.10288
333.09719
333.08957
333.07664
333.12684
333.12621
333.12487
333.12297
333.12059
333.11781
333.11467
333.11115
333.10717
333.10255
333.09691
333.08934
333.07648
333.12605
333.12543
333.12414
333.12229
333.11998
333.11726
333.11418
333.11071
333.10679
333.10222
333.09663
333.08911
333.07632
333.12526
333.12467
333.12342
333.12163
333.11937
333.11672
333.11369
333.11028
333.1064
333.10189
333.09634
333.08887
333.07615
333.1245
333.12393
333.12272
333.12097
333.11878
333.11618
333.11321
333.10985
333.10602
333.10155
333.09605
333.08863
333.07597
333.12376
333.1232
333.12203
333.12033
333.11819
333.11565
333.11273
333.10942
333.10564
333.10121
333.09576
333.08838
333.07578
333.12303
333.12249
333.12135
333.1197
333.11761
333.11512
333.11225
333.10899
333.10525
333.10087
333.09546
333.08812
333.07559
333.12232
333.1218
333.12069
333.11908
333.11704
333.1146
333.11178
333.10856
333.10487
333.10052
333.09515
333.08786
333.07538
333.12163
333.12112
333.12004
333.11847
333.11647
333.11408
333.11131
333.10813
333.10448
333.10018
333.09484
333.0876
333.07517
333.12095
333.12045
333.1194
333.11788
333.11592
333.11357
333.11084
333.10771
333.10409
333.09983
333.09453
333.08732
333.07495
333.12028
333.1198
333.11878
333.11729
333.11537
333.11306
333.11037
333.10728
333.10371
333.09947
333.09422
333.08704
333.07472
333.11963
333.11917
333.11817
333.11671
333.11483
333.11256
333.10991
333.10686
333.10332
333.09912
333.0939
333.08676
333.07448
333.119
333.11854
333.11757
333.11614
333.11429
333.11206
333.10945
333.10643
333.10293
333.09876
333.09357
333.08647
333.07424
333.11838
333.11793
333.11698
333.11558
333.11377
333.11157
333.109
333.10601
333.10254
333.09841
333.09324
333.08618
333.07399
333.11777
333.11733
333.1164
333.11503
333.11325
333.11108
333.10854
333.10559
333.10215
333.09805
333.09291
333.08588
333.07373
333.11717
333.11674
333.11583
333.11448
333.11273
333.1106
333.10809
333.10517
333.10176
333.09768
333.09258
333.08557
333.07347
333.11659
333.11617
333.11527
333.11395
333.11223
333.11013
333.10764
333.10475
333.10137
333.09732
333.09224
333.08526
333.0732
333.11601
333.1156
333.11472
333.11342
333.11172
333.10965
333.1072
333.10433
333.10098
333.09695
333.0919
333.08495
333.07292
333.11545
333.11504
333.11418
333.1129
333.11123
333.10918
333.10676
333.10392
333.10058
333.09659
333.09156
333.08463
333.07264
333.11489
333.1145
333.11365
333.11239
333.11074
333.10872
333.10632
333.1035
333.10019
333.09622
333.09121
333.08431
333.07235
333.11435
333.11396
333.11312
333.11188
333.11025
333.10826
333.10588
333.10309
333.0998
333.09585
333.09086
333.08399
333.07206
333.11381
333.11343
333.1126
333.11138
333.10977
333.1078
333.10544
333.10267
333.09941
333.09547
333.09051
333.08366
333.07177
333.11329
333.11291
333.11209
333.11089
333.1093
333.10734
333.10501
333.10226
333.09901
333.0951
333.09016
333.08333
333.07147
333.11277
333.11239
333.11159
333.1104
333.10883
333.10689
333.10458
333.10185
333.09862
333.09472
333.0898
333.083
333.07116
333.11225
333.11189
333.1111
333.10992
333.10836
333.10644
333.10415
333.10143
333.09823
333.09435
333.08944
333.08266
333.07085
333.11175
333.11139
333.1106
333.10944
333.1079
333.106
333.10372
333.10102
333.09783
333.09397
333.08908
333.08232
333.07054
333.11125
333.11089
333.11012
333.10897
333.10744
333.10556
333.10329
333.10061
333.09744
333.09359
333.08872
333.08198
333.07022
333.11076
333.11041
333.10964
333.1085
333.10699
333.10512
333.10287
333.1002
333.09704
333.09321
333.08836
333.08163
333.0699
333.11028
333.10992
333.10917
333.10803
333.10654
333.10468
333.10244
333.09979
333.09665
333.09283
333.08799
333.08128
333.06957
333.1098
333.10945
333.1087
333.10758
333.10609
333.10424
333.10202
333.09939
333.09625
333.09245
333.08763
333.08093
333.06925
333.10932
333.10898
333.10823
333.10712
333.10565
333.10381
333.1016
333.09898
333.09586
333.09207
333.08726
333.08058
333.06892
333.10885
333.10851
333.10777
333.10667
333.1052
333.10338
333.10118
333.09857
333.09546
333.09169
333.08689
333.08023
333.06858
333.10839
333.10805
333.10732
333.10622
333.10476
333.10295
333.10076
333.09817
333.09507
333.09131
333.08652
333.07987
333.06825
333.10793
333.10759
333.10686
333.10577
333.10433
333.10252
333.10035
333.09776
333.09467
333.09092
333.08615
333.07952
333.06791
333.10747
333.10714
333.10642
333.10533
333.10389
333.1021
333.09993
333.09735
333.09428
333.09054
333.08578
333.07916
333.06757
333.10702
333.10669
333.10597
333.10489
333.10346
333.10168
333.09952
333.09695
333.09388
333.09015
333.08541
333.0788
333.06723
333.10657
333.10624
333.10553
333.10446
333.10303
333.10126
333.09911
333.09655
333.09349
333.08977
333.08503
333.07844
333.06688
333.10613
333.1058
333.10509
333.10402
333.10261
333.10084
333.09869
333.09614
333.0931
333.08938
333.08466
333.07807
333.06653
333.10569
333.10536
333.10465
333.10359
333.10218
333.10042
333.09828
333.09574
333.0927
333.089
333.08428
333.07771
333.06618
333.10525
333.10492
333.10422
333.10316
333.10176
333.1
333.09787
333.09534
333.09231
333.08861
333.08391
333.07734
333.06583
333.10481
333.10449
333.10379
333.10274
333.10134
333.09958
333.09746
333.09494
333.09191
333.08823
333.08353
333.07698
333.06548
333.10438
333.10406
333.10336
333.10231
333.10092
333.09917
333.09706
333.09453
333.09152
333.08784
333.08315
333.07661
333.06513
333.10395
333.10363
333.10293
333.10189
333.1005
333.09876
333.09665
333.09413
333.09112
333.08745
333.08277
333.07624
333.06477
333.10352
333.1032
333.10251
333.10147
333.10008
333.09834
333.09624
333.09373
333.09073
333.08707
333.08239
333.07587
333.06441
333.10309
333.10277
333.10208
333.10105
333.09966
333.09793
333.09584
333.09333
333.09034
333.08668
333.08202
333.0755
333.06405
333.10267
333.10235
333.10166
333.10063
333.09925
333.09752
333.09543
333.09293
333.08994
333.08629
333.08164
333.07513
333.06369
333.10224
333.10193
333.10124
333.10021
333.09884
333.09711
333.09503
333.09253
333.08955
333.08591
333.08126
333.07476
333.06333
333.10182
333.10151
333.10082
333.09979
333.09842
333.0967
333.09462
333.09213
333.08915
333.08552
333.08087
333.07439
333.06296
333.1014
333.10109
333.10041
333.09938
333.09801
333.0963
333.09422
333.09173
333.08876
333.08513
333.08049
333.07401
333.0626
333.10099
333.10067
333.09999
333.09897
333.0976
333.09589
333.09382
333.09134
333.08837
333.08474
333.08011
333.07364
333.06223
333.10057
333.10026
333.09958
333.09855
333.09719
333.09548
333.09341
333.09094
333.08797
333.08436
333.07973
333.07326
333.06186
333.10015
333.09984
333.09916
333.09814
333.09678
333.09508
333.09301
333.09054
333.08758
333.08397
333.07935
333.07288
333.06149
333.09974
333.09943
333.09875
333.09773
333.09637
333.09467
333.09261
333.09014
333.08719
333.08358
333.07896
333.07251
333.06112
333.09933
333.09902
333.09834
333.09732
333.09597
333.09427
333.09221
333.08975
333.0868
333.08319
333.07858
333.07213
333.06075
333.09891
333.0986
333.09793
333.09691
333.09556
333.09386
333.09181
333.08935
333.0864
333.0828
333.0782
333.07175
333.06038
333.0985
333.09819
333.09752
333.09651
333.09515
333.09346
333.09141
333.08895
333.08601
333.08241
333.07781
333.07137
333.06
333.09809
333.09778
333.09711
333.0961
333.09475
333.09306
333.09101
333.08855
333.08562
333.08202
333.07743
333.07099
333.05962
333.09768
333.09738
333.0967
333.09569
333.09434
333.09266
333.09061
333.08816
333.08522
333.08164
333.07704
333.07061
333.05925
333.09728
333.09697
333.0963
333.09529
333.09394
333.09225
333.09021
333.08776
333.08483
333.08125
333.07666
333.07023
333.05887
333.09687
333.09656
333.09589
333.09488
333.09354
333.09185
333.08981
333.08737
333.08444
333.08086
333.07627
333.06985
333.05849
333.09646
333.09615
333.09548
333.09448
333.09313
333.09145
333.08941
333.08697
333.08405
333.08047
333.07589
333.06946
333.05811
333.09605
333.09575
333.09508
333.09407
333.09273
333.09105
333.08901
333.08657
333.08365
333.08008
333.0755
333.06908
333.05772
333.09565
333.09534
333.09467
333.09367
333.09233
333.09065
333.08861
333.08618
333.08326
333.07969
333.07511
333.0687
333.05734
333.09524
333.09494
333.09427
333.09327
333.09193
333.09025
333.08822
333.08578
333.08287
333.0793
333.07473
333.06831
333.05695
333.09484
333.09453
333.09387
333.09286
333.09153
333.08985
333.08782
333.08539
333.08247
333.07891
333.07434
333.06792
333.05657
333.09443
333.09413
333.09346
333.09246
333.09112
333.08945
333.08742
333.08499
333.08208
333.07852
333.07395
333.06754
333.05618
333.09403
333.09372
333.09306
333.09206
333.09072
333.08905
333.08702
333.0846
333.08169
333.07813
333.07356
333.06715
333.05579
333.09363
333.09332
333.09266
333.09166
333.09032
333.08865
333.08663
333.0842
333.0813
333.07774
333.07317
333.06676
333.0554
333.09322
333.09292
333.09225
333.09125
333.08992
333.08825
333.08623
333.08381
333.0809
333.07734
333.07278
333.06637
333.055
333.09282
333.09251
333.09185
333.09085
333.08952
333.08785
333.08583
333.08341
333.08051
333.07695
333.07239
333.06598
333.05461
333.09242
333.09211
333.09145
333.09045
333.08912
333.08746
333.08543
333.08302
333.08012
333.07656
333.072
333.06559
333.05421
333.09202
333.09171
333.09105
333.09005
333.08872
333.08706
333.08504
333.08262
333.07972
333.07617
333.07161
333.0652
333.05382
333.09161
333.09131
333.09065
333.08965
333.08832
333.08666
333.08464
333.08223
333.07933
333.07578
333.07122
333.0648
333.05342
333.09121
333.09091
333.09025
333.08925
333.08792
333.08626
333.08424
333.08183
333.07893
333.07538
333.07082
333.06441
333.05302
333.09081
333.09051
333.08984
333.08885
333.08752
333.08586
333.08385
333.08143
333.07854
333.07499
333.07043
333.06401
333.05261
333.09041
333.0901
333.08944
333.08845
333.08713
333.08546
333.08345
333.08104
333.07814
333.07459
333.07004
333.06362
333.05221
333.09001
333.0897
333.08904
333.08805
333.08673
333.08507
333.08305
333.08064
333.07775
333.0742
333.06964
333.06322
333.05181
333.08961
333.0893
333.08864
333.08765
333.08633
333.08467
333.08266
333.08025
333.07735
333.0738
333.06924
333.06282
333.0514
333.08921
333.0889
333.08824
333.08725
333.08593
333.08427
333.08226
333.07985
333.07696
333.07341
333.06885
333.06242
333.05099
333.08881
333.0885
333.08784
333.08685
333.08553
333.08387
333.08186
333.07945
333.07656
333.07301
333.06845
333.06202
333.05058
333.08841
333.0881
333.08744
333.08645
333.08513
333.08348
333.08146
333.07906
333.07617
333.07262
333.06805
333.06162
333.05016
333.08801
333.0877
333.08704
333.08605
333.08473
333.08308
333.08107
333.07866
333.07577
333.07222
333.06765
333.06121
333.04975
333.08761
333.0873
333.08664
333.08565
333.08433
333.08268
333.08067
333.07826
333.07537
333.07182
333.06725
333.06081
333.04933
333.08721
333.0869
333.08625
333.08526
333.08394
333.08228
333.08027
333.07787
333.07497
333.07142
333.06685
333.0604
333.04891
333.08681
333.0865
333.08585
333.08486
333.08354
333.08188
333.07987
333.07747
333.07458
333.07102
333.06645
333.05999
333.04849
333.08641
333.0861
333.08545
333.08446
333.08314
333.08148
333.07948
333.07707
333.07418
333.07062
333.06605
333.05958
333.04807
333.08601
333.0857
333.08505
333.08406
333.08274
333.08109
333.07908
333.07667
333.07378
333.07022
333.06564
333.05917
333.04764
333.08561
333.0853
333.08465
333.08366
333.08234
333.08069
333.07868
333.07627
333.07338
333.06982
333.06524
333.05876
333.04722
333.08521
333.0849
333.08425
333.08326
333.08194
333.08029
333.07828
333.07587
333.07298
333.06942
333.06483
333.05835
333.04679
333.08481
333.0845
333.08385
333.08286
333.08154
333.07989
333.07788
333.07547
333.07258
333.06901
333.06442
333.05793
333.04635
333.08441
333.08411
333.08345
333.08246
333.08114
333.07949
333.07748
333.07507
333.07217
333.06861
333.06401
333.05752
333.04592
333.08401
333.08371
333.08305
333.08206
333.08074
333.07909
333.07708
333.07467
333.07177
333.0682
333.0636
333.0571
333.04548
333.08361
333.08331
333.08265
333.08166
333.08034
333.07869
333.07668
333.07427
333.07137
333.0678
333.06319
333.05668
333.04504
333.08321
333.08291
333.08225
333.08126
333.07995
333.07829
333.07628
333.07387
333.07096
333.06739
333.06278
333.05626
333.0446
333.08281
333.08251
333.08185
333.08086
333.07955
333.07789
333.07588
333.07347
333.07056
333.06698
333.06237
333.05583
333.04415
333.08241
333.08211
333.08145
333.08046
333.07914
333.07749
333.07548
333.07306
333.07015
333.06657
333.06195
333.05541
333.0437
333.08201
333.08171
333.08105
333.08006
333.07874
333.07709
333.07508
333.07266
333.06975
333.06616
333.06153
333.05498
333.04325
333.08161
333.08131
333.08065
333.07966
333.07834
333.07669
333.07467
333.07225
333.06934
333.06575
333.06111
333.05455
333.04279
333.08121
333.08091
333.08025
333.07926
333.07794
333.07629
333.07427
333.07185
333.06893
333.06534
333.06069
333.05412
333.04234
333.08081
333.08051
333.07985
333.07886
333.07754
333.07588
333.07387
333.07144
333.06852
333.06492
333.06027
333.05368
333.04187
333.08041
333.08011
333.07945
333.07846
333.07714
333.07548
333.07346
333.07104
333.06811
333.06451
333.05985
333.05324
333.04141
333.08001
333.07971
333.07905
333.07806
333.07674
333.07508
333.07306
333.07063
333.0677
333.06409
333.05942
333.05281
333.04094
333.07961
333.0793
333.07865
333.07766
333.07633
333.07467
333.07265
333.07022
333.06729
333.06367
333.059
333.05236
333.04047
333.07921
333.0789
333.07825
333.07725
333.07593
333.07427
333.07224
333.06981
333.06687
333.06325
333.05857
333.05192
333.03999
333.0788
333.0785
333.07784
333.07685
333.07553
333.07386
333.07184
333.0694
333.06646
333.06283
333.05814
333.05147
333.03951
333.0784
333.0781
333.07744
333.07645
333.07512
333.07346
333.07143
333.06899
333.06604
333.06241
333.05771
333.05102
333.03902
333.078
333.0777
333.07704
333.07605
333.07472
333.07305
333.07102
333.06858
333.06563
333.06199
333.05727
333.05057
333.03853
333.0776
333.0773
333.07664
333.07564
333.07431
333.07264
333.07061
333.06816
333.06521
333.06156
333.05683
333.05012
333.03804
333.0772
333.07689
333.07623
333.07524
333.07391
333.07224
333.0702
333.06775
333.06479
333.06113
333.05639
333.04966
333.03754
333.07679
333.07649
333.07583
333.07483
333.0735
333.07183
333.06979
333.06733
333.06437
333.0607
333.05595
333.0492
333.03704
333.07639
333.07609
333.07542
333.07443
333.07309
333.07142
333.06937
333.06692
333.06394
333.06027
333.05551
333.04873
333.03653
333.07599
333.07568
333.07502
333.07402
333.07269
333.07101
333.06896
333.0665
333.06352
333.05984
333.05506
333.04826
333.03602
333.07558
333.07528
333.07461
333.07361
333.07228
333.0706
333.06855
333.06608
333.06309
333.0594
333.05461
333.04779
333.0355
333.07518
333.07487
333.07421
333.07321
333.07187
333.07018
333.06813
333.06566
333.06267
333.05896
333.05416
333.04732
333.03497
333.07477
333.07446
333.0738
333.0728
333.07146
333.06977
333.06771
333.06523
333.06224
333.05852
333.05371
333.04684
333.03444
333.07436
333.07406
333.07339
333.07239
333.07105
333.06936
333.06729
333.06481
333.0618
333.05808
333.05325
333.04635
333.03391
333.07396
333.07365
333.07298
333.07198
333.07063
333.06894
333.06687
333.06438
333.06137
333.05764
333.05279
333.04587
333.03336
333.07355
333.07324
333.07258
333.07157
333.07022
333.06852
333.06645
333.06396
333.06094
333.05719
333.05232
333.04537
333.03281
333.07314
333.07284
333.07217
333.07116
333.06981
333.06811
333.06603
333.06353
333.0605
333.05674
333.05186
333.04488
333.03225
333.07273
333.07243
333.07176
333.07074
333.06939
333.06769
333.06561
333.0631
333.06006
333.05629
333.05139
333.04437
333.03168
333.07232
333.07202
333.07134
333.07033
333.06898
333.06727
333.06518
333.06267
333.05962
333.05583
333.05091
333.04387
333.03111
333.07191
333.0716
333.07093
333.06992
333.06856
333.06685
333.06476
333.06223
333.05917
333.05538
333.05043
333.04335
333.03052
333.0715
333.07119
333.07052
333.0695
333.06814
333.06642
333.06433
333.0618
333.05872
333.05491
333.04995
333.04284
333.02992
333.07109
333.07078
333.07011
333.06909
333.06772
333.066
333.0639
333.06136
333.05827
333.05445
333.04946
333.04231
333.02932
333.07068
333.07037
333.06969
333.06867
333.0673
333.06557
333.06346
333.06092
333.05782
333.05398
333.04897
333.04178
333.0287
333.07026
333.06995
333.06927
333.06825
333.06688
333.06515
333.06303
333.06047
333.05737
333.05351
333.04847
333.04124
333.02806
333.06985
333.06954
333.06886
333.06783
333.06645
333.06472
333.06259
333.06003
333.05691
333.05303
333.04797
333.04069
333.02741
333.06943
333.06912
333.06844
333.06741
333.06603
333.06428
333.06215
333.05958
333.05645
333.05255
333.04745
333.04013
333.02674
333.06902
333.0687
333.06802
333.06698
333.0656
333.06385
333.06171
333.05913
333.05598
333.05206
333.04694
333.03955
333.02604
333.0686
333.06828
333.0676
333.06656
333.06517
333.06342
333.06127
333.05867
333.05551
333.05157
333.04641
333.03897
333.02532
333.06818
333.06786
333.06717
333.06613
333.06474
333.06298
333.06082
333.05821
333.05504
333.05107
333.04588
333.03836
333.02454
333.06776
333.06744
333.06675
333.06571
333.06431
333.06254
333.06038
333.05775
333.05456
333.05057
333.04533
333.03773
333.02367
)
;

boundaryField
{
    water_inlet
    {
        type            fixedValue;
        value           uniform 333.15;
    }
    water_outlet
    {
        type            zeroGradient;
    }
    water_wedge1
    {
        type            wedge;
    }
    water_wedge2
    {
        type            wedge;
    }
    water_to_rock
    {
        type            compressible::turbulentTemperatureRadCoupledMixed;
        refValue        nonuniform List<scalar> 
200
(
315.49902
319.11548
320.92099
322.01718
322.7766
323.349
323.805
324.1825
324.50394
324.78356
325.0309
325.2526
325.45346
325.63702
325.80598
325.96242
326.10803
326.24415
326.37188
326.49214
326.60569
326.71319
326.81518
326.91213
327.00446
327.09251
327.17661
327.25702
327.33398
327.40772
327.47842
327.54626
327.6114
327.67397
327.73412
327.79195
327.84759
327.90113
327.95267
328.00229
328.05008
328.09611
328.14046
328.1832
328.22438
328.26407
328.30233
328.33921
328.37476
328.40904
328.44208
328.47393
328.50465
328.53425
328.5628
328.59032
328.61684
328.64241
328.66706
328.69081
328.71371
328.73577
328.75702
328.7775
328.79722
328.81622
328.83451
328.85213
328.86909
328.88541
328.90112
328.91624
328.93078
328.94476
328.95821
328.97114
328.98356
328.9955
329.00697
329.01798
329.02855
329.03869
329.04842
329.05775
329.06669
329.07526
329.08346
329.09131
329.09882
329.10599
329.11284
329.11938
329.12562
329.13156
329.13721
329.14259
329.14769
329.15253
329.15712
329.16145
329.16553
329.16938
329.173
329.17638
329.17955
329.18249
329.18522
329.18774
329.19006
329.19217
329.19409
329.1958
329.19733
329.19866
329.19981
329.20077
329.20154
329.20214
329.20255
329.20278
329.20283
329.2027
329.2024
329.20192
329.20126
329.20042
329.1994
329.1982
329.19682
329.19526
329.19352
329.19159
329.18948
329.18718
329.18469
329.182
329.17912
329.17604
329.17275
329.16926
329.16556
329.16165
329.15752
329.15316
329.14857
329.14375
329.1387
329.13339
329.12784
329.12202
329.11594
329.10959
329.10296
329.09604
329.08883
329.0813
329.07347
329.0653
329.05681
329.04796
329.03876
329.02918
329.01923
329.00887
328.99811
328.98692
328.97529
328.9632
328.95063
328.93756
328.92398
328.90986
328.89517
328.8799
328.86401
328.84748
328.83026
328.81234
328.79365
328.77417
328.75384
328.73261
328.71041
328.68717
328.66281
328.63723
328.61031
328.58193
328.5519
328.52003
328.48604
328.4496
328.41025
328.36734
328.31995
328.26658
328.20472
328.12936
328.02896
327.87116
)
;
        refGradient     uniform 0;
        valueFraction   nonuniform List<scalar> 
200
(
0.021313587
0.018349032
0.017286587
0.016999676
0.017072311
0.017312679
0.017619574
0.017934173
0.018220835
0.018459614
0.01864309
0.018773723
0.018860286
0.018913928
0.018945118
0.018962099
0.018970608
0.018974281
0.018975235
0.018974594
0.018972889
0.01897032
0.018966927
0.018962686
0.018957559
0.018951519
0.01894456
0.018936694
0.018927949
0.018918366
0.018907994
0.018896903
0.018885173
0.018872882
0.018860098
0.018846868
0.018833224
0.018819204
0.018804843
0.018790181
0.018775253
0.018760098
0.018744752
0.018729251
0.018713631
0.018697926
0.018682171
0.018666398
0.018650643
0.018634938
0.018619319
0.018603823
0.018588486
0.018573349
0.018558455
0.018543848
0.018529578
0.018515694
0.018502248
0.018489294
0.018476882
0.018465064
0.018453885
0.018443386
0.018433604
0.018424565
0.018416289
0.018408788
0.018402063
0.018396108
0.018390909
0.018386444
0.018382686
0.018379602
0.018377154
0.018375302
0.018374002
0.018373212
0.018372885
0.018372979