/*--------------------------------*- C++ -*----------------------------------*\
| =========                 |                                                 |
| \\      /  F ield         | OpenFOAM: The Open Source CFD Toolbox           |
|  \\    /   O peration     | Version:  2506                                  |
|   \\  /    A nd           | Website:  www.openfoam.com                      |
|    \\/     M anipulation  |                                                 |
\*---------------------------------------------------------------------------*/
FoamFile
{
    version     2.0;
    format      ascii;
    arch        "LSB;label=32;scalar=64";
    class       volVectorField;
    location    "6000/water";
    object      U;
}
// * * * * * * * * * * * * * * * * * * * * * * * * * * * * * * * * * * * * * //

dimensions      [0 1 -1 0 0 0 0];

internalField   nonuniform List<vector> 
2600
(
(0.2509291 -6.6886033e-05 -1.6628019e-18)
(0.25093316 -0.00014739222 -3.8236302e-18)
(0.25094167 -0.00023143146 -8.8417643e-19)
(0.2509543 -0.00031980044 -7.2585901e-19)
(0.25097092 -0.0004082391 8.8756874e-20)
(0.25099124 -0.00049673666 3.8526783e-20)
(0.25101467 -0.0005856609 5.8738692e-20)
(0.25103908 -0.00067482201 8.9796643e-21)
(0.25105541 -0.00075972197 -9.0969847e-20)
(0.25102652 -0.00083857781 6.3095356e-20)
(0.25079811 -0.00098580402 1.7874035e-20)
(0.24954942 -0.001485464 5.3749079e-20)
(0.2411817 0.0014904344 -5.9109418e-19)
(0.25290631 -5.2391824e-05 -1.2684227e-18)
(0.25291356 -0.00012867936 -4.3784385e-18)
(0.25292967 -0.00020232594 -9.9847052e-19)
(0.25295369 -0.00027812692 -4.2574475e-19)
(0.25298503 -0.00035187867 -1.4642006e-19)
(0.25302278 -0.00042368282 4.6092685e-24)
(0.25306456 -0.0004936843 -7.9810954e-20)
(0.25310219 -0.00056251339 2.9749647e-20)
(0.25310631 -0.00062550536 -6.3514839e-20)
(0.25297401 -0.00066089399 1.076939e-19)
(0.25231856 -0.00068576655 -3.1022455e-20)
(0.24919071 -0.0011507908 -1.7588714e-19)
(0.23317376 0.00055016191 -6.0067978e-19)
(0.25485703 -5.0201261e-05 -2.1962887e-19)
(0.25486389 -0.00012463928 -1.3785365e-18)
(0.2548791 -0.00019574884 -1.1838079e-18)
(0.2549016 -0.00026956178 1.843837e-19)
(0.25493052 -0.00034177627 -1.5062179e-19)
(0.25496396 -0.00041257844 -1.9187856e-19)
(0.25499618 -0.00048173979 -1.370985e-19)
(0.25500857 -0.00054996705 4.7613746e-19)
(0.25494172 -0.00061637669 4.0309305e-19)
(0.2546073 -0.0006602417 5.7101571e-20)
(0.25332071 -0.00063871076 -1.0714711e-19)
(0.2478214 -0.00092597142 -4.1295224e-19)
(0.22526486 0.00012340436 -6.0138414e-19)
(0.25664521 -4.9743849e-05 1.9198954e-18)
(0.25665224 -0.00012488064 5.8844518e-19)
(0.2566674 -0.00019721364 9.7351463e-20)
(0.2566896 -0.0002720698 4.0568794e-20)
(0.25671747 -0.00034495172 1.4018504e-19)
(0.25674738 -0.00041609227 -2.6442665e-19)
(0.25676826 -0.0004848948 8.8288472e-20)
(0.25674667 -0.00055096518 3.7755275e-19)
(0.25658539 -0.00061444887 -4.6400721e-20)
(0.2559957 -0.0006636637 6.0865802e-21)
(0.2539403 -0.00063277351 -1.3005167e-19)
(0.24583249 -0.00077044467 -3.4905001e-19)
(0.21800982 -5.9385921e-05 -6.0891656e-19)
(0.25841323 -4.8556775e-05 1.1151659e-18)
(0.2584204 -0.00012219546 6.3627822e-19)
(0.25843571 -0.00019301892 9.1940099e-19)
(0.25845781 -0.00026625064 -2.9755297e-19)
(0.25848442 -0.00033744492 -9.3532189e-20)
(0.25850914 -0.00040689654 -1.6256792e-19)
(0.25851346 -0.00047389151 -5.2038771e-20)
(0.25844542 -0.00053705871 -2.5253284e-19)
(0.25816424 -0.00059536593 -8.0031976e-20)
(0.25726648 -0.00064373127 5.4660424e-20)
(0.25431322 -0.0006144232 -1.4730533e-19)
(0.24352458 -0.00065114414 -2.2017256e-19)
(0.21163262 -0.00012321892 -5.246286e-19)
(0.26015467 -4.709344e-05 1.2896212e-18)
(0.26016187 -0.0001185153 1.2458688e-18)
(0.26017704 -0.0001870764 5.0565051e-19)
(0.2601984 -0.00025799462 5.7750442e-19)
(0.26022227 -0.00032687701 -3.5987664e-20)
(0.26023853 -0.00039398781 -6.6331742e-20)
(0.26021927 -0.00045855461 -2.5070748e-19)
(0.26009115 -0.00051865148 -3.8347731e-19)
(0.25966515 -0.00057157394 -1.5217001e-20)
(0.2584067 -0.0006148087 1.5792673e-20)
(0.25443266 -0.00058544056 -1.0236291e-19)
(0.24102793 -0.0005571206 -5.7547217e-20)
(0.20612335 -0.00013293671 -4.0265882e-19)
(0.26183846 -4.5390267e-05 1.2393205e-18)
(0.26184561 -0.00011435405 1.5747141e-18)
(0.26186042 -0.00018050108 5.4225135e-19)
(0.26188043 -0.00024892327 9.4763264e-19)
(0.26190008 -0.00031528561 3.6067881e-20)
(0.26190445 -0.00037977027 2.6720401e-19)
(0.26185458 -0.00044151446 -9.4253526e-20)
(0.2616533 -0.00049832849 -1.5718567e-19)
(0.26105826 -0.00054618084 -3.2005098e-19)
(0.25938354 -0.00058222647 -2.1338936e-19)
(0.25426994 -0.00054801504 -7.8202844e-20)
(0.23842933 -0.00047868139 -8.0174137e-20)
(0.20141646 -0.00011963306 -4.7279406e-19)
(0.26345768 -4.3664881e-05 -2.5259524e-18)
(0.26346469 -0.00011008557 -9.3752236e-19)
(0.26347885 -0.00017377013 -4.3242362e-19)
(0.26349678 -0.00023963045 1.8502307e-19)
(0.26351051 -0.00030340684 2.1684207e-20)
(0.26349932 -0.00036518044 3.9446139e-19)
(0.26341166 -0.00042394823 2.1147504e-19)
(0.2631242 -0.00047735793 1.3330459e-19)
(0.26233468 -0.00052050214 2.1018583e-21)
(0.26018092 -0.00054846095 -2.1821447e-19)
(0.25381559 -0.00050481858 -1.0241677e-19)
(0.23581666 -0.00040978299 -8.2628719e-22)
(0.19745226 -9.8494616e-05 -3.1232255e-19)
(0.26501552 -4.2046877e-05 1.0024953e-18)
(0.26502225 -0.00010599907 1.0594208e-18)
(0.26503542 -0.0001673021 8.2193992e-19)
(0.26505044 -0.00023067618 1.1570162e-18)
(0.26505633 -0.00029193976 4.3989863e-19)
(0.26502564 -0.00035106733 2.0121512e-19)
(0.26489279 -0.0004068816 1.4354347e-19)
(0.26450568 -0.00045685738 -6.8885697e-20)
(0.26349313 -0.00049549056 -3.0901746e-19)
(0.26078727 -0.00051473411 -1.6026473e-19)
(0.25307513 -0.00045847926 -1.4147625e-19)
(0.23327192 -0.00034737981 1.2052743e-19)
(0.19416843 -7.6932878e-05 -7.1287798e-20)
(0.2665165 -4.057706e-05 5.5012498e-19)
(0.26652283 -0.00010224007 1.3450033e-18)
(0.26653459 -0.00016134012 8.3967008e-19)
(0.26654572 -0.0002224043 8.498967e-19)
(0.26654166 -0.00028132047 2.8125563e-19)
(0.26648729 -0.00033795568 -1.362447e-20)
(0.26630156 -0.0003909415 -1.0295903e-19)
(0.26580019 -0.00043752442 -2.1256278e-19)
(0.26453091 -0.00047164498 -1.9811179e-19)
(0.26118849 -0.00048140525 -1.3655318e-19)
(0.25206937 -0.00041120617 -6.6501825e-20)
(0.23086314 -0.00029047959 -1.6607421e-19)
(0.19149027 -5.8333255e-05 -3.0988717e-19)
(0.26796591 -3.9276697e-05 -1.1503326e-18)
(0.26797166 -9.8886216e-05 -4.4497376e-19)
(0.26798155 -0.00015601486 -4.8613331e-20)
(0.26798768 -0.00021499986 4.776523e-19)
(0.26797137 -0.00027178437 2.6501783e-19)
(0.26788889 -0.00032612646 -1.2274675e-19)
(0.26764202 -0.00037645613 6.6222043e-20)
(0.26700984 -0.00041972353 -5.4058891e-20)
(0.26544297 -0.00044912486 -1.5876168e-19)
(0.26137042 -0.00044842588 -3.3486597e-20)
(0.25083979 -0.00036475941 -6.8600213e-20)
(0.22864123 -0.00023936528 -5.293745e-19)
(0.18933265 -4.3854023e-05 -3.5715662e-19)
(0.26936985 -3.8151201e-05 8.5797492e-20)
(0.26937484 -9.5961771e-05 -1.8722927e-19)
(0.26938229 -0.00015136516 2.4318631e-20)
(0.2693822 -0.00020851724 1.8688847e-19)
(0.26935114 -0.00026339986 1.9467021e-19)
(0.26923575 -0.00031565718 -3.0504813e-21)
(0.26891866 -0.00036350366 1.6060322e-19)
(0.26813622 -0.00040351927 -2.0572382e-20)
(0.26622207 -0.00042777198 -1.904002e-19)
(0.26132397 -0.00041560855 -8.8843011e-20)
(0.24944814 -0.00032041762 -1.816821e-19)
(0.22663743 -0.00019477817 -4.8019264e-19)
(0.18760708 -3.3365972e-05 -2.6070734e-19)
(0.27073452 -3.7186892e-05 -5.7218069e-20)
(0.27073851 -9.3441594e-05 -6.2213724e-19)
(0.27074291 -0.00014735094 3.0362512e-20)
(0.27073523 -0.00020290124 3.4420093e-19)
(0.27068668 -0.00025609589 5.7687582e-20)
(0.27053315 -0.00030645578 1.1076845e-19)
(0.27013553 -0.00035195662 -9.4409495e-20)
(0.26917943 -0.00038871662 -6.3074733e-20)
(0.26685881 -0.00040716162 -8.355681e-20)
(0.26105041 -0.00038281108 -1.1565753e-19)
(0.24796793 -0.00027903903 -2.2989432e-19)
(0.2248628 -0.00015723519 -4.6648368e-19)
(0.18622942 -2.608962e-05 -1.4165212e-19)
(0.27206549 -3.6358598e-05 5.0670827e-19)
(0.27206822 -9.1270024e-05 -5.3747824e-19)
(0.27206885 -0.0001438843 5.0006938e-19)
(0.27205207 -0.00019803069 9.9565093e-19)
(0.27198302 -0.00024971698 -2.5171846e-20)
(0.27178551 -0.0002983267 2.2617386e-19)
(0.27129541 -0.00034156266 3.4130598e-19)
(0.27013718 -0.00037494839 5.4720455e-20)
(0.26734241 -0.00038673535 -7.4464077e-20)
(0.2605654 -0.00035005845 -8.0571372e-20)
(0.24647172 -0.00024119444 -2.6962041e-19)
(0.22331131 -0.00012666963 -4.5816036e-19)
(0.18512583 -2.107637e-05 -4.465481e-19)
(0.27336737 -3.5638788e-05 2.7764938e-19)
(0.27336856 -8.938186e-05 7.5648703e-19)
(0.27336463 -0.00014086217 1.1775263e-18)
(0.27333706 -0.00019376295 2.3129165e-19)
(0.27324415 -0.00024407934 3.2757334e-19)
(0.27299604 -0.00029103798 2.4601098e-19)
(0.27239931 -0.00033202382 3.7138583e-19)
(0.27100443 -0.00036176734 6.3437853e-20)
(0.26766283 -0.00036596046 1.4548235e-19)
(0.25989992 -0.00031757793 -1.3684003e-19)
(0.24502002 -0.00020725745 -5.0040112e-19)
(0.22196569 -0.00010242448 -1.9843462e-19)
(0.18423545 -1.7507118e-05 -3.0382612e-19)
(0.27464382 -3.5002894e-05 3.1630189e-19)
(0.27464313 -8.7716017e-05 5.084739e-19)
(0.27463375 -0.00013818758 9.8256144e-19)
(0.2745935 -0.00018996324 3.7231622e-19)
(0.27447297 -0.00023900779 7.8954329e-19)
(0.27416661 -0.00028436529 7.1394326e-20)
(0.27344636 -0.00032304577 -3.0911619e-19)
(0.27177364 -0.00034871442 -6.3589558e-20)
(0.26781391 -0.00034445792 -1.7218652e-19)
(0.25909705 -0.00028576382 -2.102917e-19)
(0.2436552 -0.00017740821 -3.0855722e-19)
(0.22080343 -8.3473061e-05 -3.349882e-19)
(0.18351045 -1.4804616e-05 1.6099668e-20)
(0.27589768 -3.4431105e-05 -9.208652e-19)
(0.27589473 -8.6221418e-05 -5.5911731e-19)
(0.27587888 -0.00013577913 -1.9018272e-19)
(0.27582384 -0.00018651757 3.629222e-19)
(0.27567139 -0.00023435206 4.0256872e-19)
(0.27529788 -0.00027811161 -1.5259908e-21)
(0.27443375 -0.00031435606 -1.299691e-19)
(0.27243556 -0.00033536392 -1.4544939e-19)
(0.26779662 -0.00032206948 -2.778474e-19)
(0.25820551 -0.00025510598 -1.8619815e-19)
(0.24240122 -0.00015160162 -1.423562e-19)
(0.21980119 -6.8691003e-05 -3.2854313e-19)
(0.18291435 -1.2618554e-05 -3.2297072e-19)
(0.27713109 -3.3908296e-05 9.6012024e-19)
(0.27712546 -8.4858001e-05 2.1410627e-19)
(0.27710201 -0.00013357264 -2.4094522e-20)
(0.27702977 -0.00018333501 4.0719968e-19)
(0.27684047 -0.00022998947 3.9322801e-19)
(0.2763893 -0.00027211088 2.2181765e-19)
(0.27535691 -0.00030570399 -3.4843661e-20)
(0.2729805 -0.00032135787 -1.4630512e-19)
(0.26762111 -0.00029886295 -2.7317307e-19)
(0.25727242 -0.00022610441 -3.1965257e-19)
(0.24126718 -0.00012956886 -2.9781325e-19)
(0.21893722 -5.7057435e-05 -2.7168993e-19)
(0.18241982 -1.0759083e-05 -3.1321403e-19)
(0.27834572 -3.3423243e-05 6.5333975e-19)
(0.27833694 -8.3595438e-05 8.0880106e-19)
(0.2783046 -0.00013151911 3.0709021e-19)
(0.27821241 -0.00018034488 6.9036205e-19)
(0.27798052 -0.00022582105 -2.3286763e-20)
(0.27743925 -0.00026622306 3.0381491e-19)
(0.27620962 -0.00029685485 1.8778645e-19)
(0.27340008 -0.00030643644 -2.3093067e-20)
(0.26730692 -0.00027509383 -1.7936748e-19)
(0.25633756 -0.0001991843 -3.6955355e-19)
(0.24025214 -0.0001108758 -1.9101387e-19)
(0.21819234 -4.7749368e-05 -2.8093878e-19)
(0.18200662 -9.1303531e-06 -4.2670659e-19)
(0.27954284 -3.2967675e-05 -1.7301966e-18)
(0.27953036 -8.2411065e-05 1.3464162e-19)
(0.27948767 -0.00012958149 5.5908704e-19)
(0.27937237 -0.00017749197 -1.2042913e-19)
(0.27909121 -0.00022176546 1.0778404e-20)
(0.27844503 -0.00026032527 1.7767107e-19)
(0.27698441 -0.00028758731 1.9423256e-19)
(0.27368915 -0.00029046172 4.5739959e-20)
(0.26688073 -0.00025114512 1.694303e-19)
(0.25543062 -0.00017462896 2.3632467e-19)
(0.2393495 -9.5013856e-05 4.7956859e-20)
(0.21755 -4.0152309e-05 2.7174263e-22)
(0.18165972 -7.6839573e-06 -1.2239712e-19)
(0.28072346 -3.253541e-05 2.1444902e-18)
(0.28070667 -8.1287793e-05 2.3179542e-19)
(0.28065194 -0.00012773124 5.5215133e-19)
(0.28050986 -0.0001747318 2.6726355e-19)
(0.28017156 -0.00021775303 1.1631835e-19)
(0.27940289 -0.00025430188 1.7146432e-19)
(0.27767312 -0.00027769789 3.9471524e-19)
(0.27384765 -0.00027342828 5.0394589e-19)
(0.26637281 -0.00022746053 2.6355272e-19)
(0.2545711 -0.00015254851 -3.5062214e-20)
(0.23855012 -8.1484031e-05 -2.9112114e-19)
(0.21699614 -3.3827435e-05 -6.7801568e-20)
(0.18136794 -6.3925386e-06 1.6352744e-19)
(0.28188837 -3.2121655e-05 2.5105688e-18)
(0.28186655 -8.0212343e-05 1.8375597e-18)
(0.28179785 -0.00012594549 1.2006171e-20)
(0.28162471 -0.00017202641 3.3793205e-19)
(0.28121999 -0.00021372065 2.5194562e-19)
(0.28030804 -0.00024803603 1.666851e-19)
(0.27826773 -0.00026701328 3.8027519e-19)
(0.27388156 -0.00025545692 3.9536658e-19)
(0.26581311 -0.00020447967 2.289494e-19)
(0.25377001 -0.00013289057 -2.7184036e-19)
(0.23784411 -6.9849922e-05 -2.2240666e-19)
(0.21651887 -2.8467154e-05 -6.6903263e-20)
(0.18112283 -5.2370931e-06 -3.6324896e-20)
(0.28303819 -3.1722486e-05 2.2414839e-18)
(0.28301052 -7.9173849e-05 2.2412991e-18)
(0.28292559 -0.00012420469 3.0795336e-19)
(0.28271638 -0.00016934096 -3.5940948e-19)
(0.2822343 -0.00020960734 5.4227821e-19)
(0.28115476 -0.00024140493 2.2075409e-19)
(0.27876144 -0.00025540748 -1.0035972e-19)
(0.27380292 -0.00023677356 2.2365935e-19)
(0.26522808 -0.00018258167 1.960258e-19)
(0.25303215 -0.00011548282 1.5679894e-19)
(0.23722187 -5.975696e-05 2.1475656e-19)
(0.21610816 -2.3855673e-05 1.2700168e-19)
(0.18091788 -4.2018425e-06 1.4599251e-19)
(0.28417339 -3.1334452e-05 -1.9194053e-20)
(0.28413893 -7.8162819e-05 6.7817598e-19)
(0.28403512 -0.00012249081 5.2809117e-19)
(0.28378396 -0.00016664114 3.7419234e-19)
(0.28321158 -0.0002053501 -1.477442e-19)
(0.28193659 -0.00023428041 3.1950666e-19)
(0.27914984 -0.00024281874 3.2609385e-19)
(0.27362851 -0.00021767781 4.7064387e-19)
(0.26463906 -0.00016204558 1.1427696e-19)
(0.25235823 -0.00010008753 -3.9063282e-19)
(0.23667446 -5.0928431e-05 -4.1075551e-19)
(0.21575559 -1.9839551e-05 -1.4011288e-19)
(0.18074793 -3.2726357e-06 4.5278056e-20)
(0.28529433 -3.0954305e-05 1.1544591e-19)
(0.28525196 -7.7170336e-05 9.9465357e-19)
(0.28512619 -0.000120786 1.3038445e-18)
(0.28482614 -0.00016389138 6.0968199e-19)
(0.28414822 -0.00020087986 1.4920685e-19)
(0.28264669 -0.00022653515 1.8153029e-19)
(0.27943202 -0.00022926076 2.9408957e-19)
(0.27337791 -0.00019850621 1.9647331e-20)
(0.26406181 -0.00014303339 -1.2123942e-19)
(0.25174654 -8.6449677e-05 -8.896003e-20)
(0.23619383 -4.3151079e-05 -2.5650646e-19)
(0.21545404 -1.630748e-05 -2.1969396e-19)
(0.18060883 -2.4367068e-06 -6.7379161e-20)
(0.28640123 -3.0578784e-05 1.960907e-18)
(0.28634965 -7.6187463e-05 1.9762783e-19)
(0.28619826 -0.00011907139 7.9585768e-19)
(0.28584114 -0.00016105348 1.0797957e-19)
(0.28503985 -0.00019611847 7.4196145e-19)
(0.2832784 -0.00021805401 1.31218e-19)
(0.27961117 -0.00021482471 -4.6660202e-20)
(0.27307114 -0.00017959427 1.0873868e-19)
(0.26350715 -0.00012559657 -2.7679017e-20)
(0.25119402 -7.4328963e-05 4.1528005e-19)
(0.23577276 -3.6259369e-05 1.3270989e-19)
(0.21519748 -1.3176835e-05 -6.0222764e-21)
(0.18049716 -1.6827572e-06 9.2885602e-20)
(0.28749419 -3.0204451e-05 -5.9544735e-19)
(0.28743185 -7.520472e-05 8.2557321e-20)
(0.28725056 -0.00011732616 -3.9091524e-19)
(0.28682673 -0.0001580853 1.9555994e-19)
(0.28588145 -0.00019097762 5.6630167e-19)
(0.28382593 -0.00020874813 3.0476685e-19)
(0.27969464 -0.00019967158 -1.2035814e-19)
(0.27272685 -0.00016124193 1.7169453e-19)
(0.26298189 -0.00010969945 1.2192578e-19)
(0.25069697 -6.3515014e-05 -6.2341677e-20)
(0.23540492 -3.0122538e-05 5.5983219e-20)
(0.21498079 -1.0384799e-05 2.2811927e-20)
(0.18041 -1.0010009e-06 2.367645e-21)
(0.28857317 -2.9827536e-05 -1.1608482e-18)
(0.28849825 -7.4211613e-05 4.0254694e-19)
(0.28828196 -0.00011552671 1.4767884e-19)
(0.28778008 -0.00015493915 2.4530694e-19)
(0.28666738 -0.00018536089 3.3537733e-19)
(0.28428521 -0.00019856896 4.7399509e-19)
(0.27969326 -0.00018401637 -7.4172519e-21)
(0.27236107 -0.0001436879 6.8509099e-20)
(0.26248991 -9.5249862e-05 1.7646348e-19)
(0.25025143 -5.3830549e-05 2.9927572e-20)
(0.23508472 -2.4635267e-05 1.9665465e-19)
(0.21479959 -7.882485e-06 8.3963742e-21)
(0.18034487 -3.8307663e-07 -2.6460103e-20)
(0.28963798 -2.9443749e-05 6.6104907e-19)
(0.28954832 -7.3196105e-05 5.6567831e-19)
(0.28929102 -0.00011364593 6.1820408e-19)
(0.2886978 -0.00015155982 7.899129e-19)
(0.28739174 -0.00017916927 9.0775896e-20)
(0.28465455 -0.00018751865 4.0193858e-19)
(0.27962017 -0.0001681064 7.5516145e-19)
(0.2719867 -0.00012709647 5.3311486e-19)
(0.26203302 -8.2127513e-05 6.8993502e-20)
(0.24985346 -4.5128125e-05 -2.7764058e-19)
(0.23480728 -1.971126e-05 -4.1394446e-19)
(0.21465012 -5.630988e-06 -1.3547552e-19)
(0.18029962 1.7813052e-07 -7.0828776e-20)
(0.29068824 -2.9047996e-05 -1.529315e-19)
(0.29058125 -7.214382e-05 1.3189263e-18)
(0.29027586 -0.0001116522 1.3405922e-18)
(0.28957586 -0.00014788248 7.9740185e-19)
(0.28804865 -0.00017230925 2.1659955e-19)
(0.28493523 -0.00017565384 3.0729566e-19)
(0.2794894 -0.00015219579 6.6657563e-19)
(0.2716136 -0.0001115566 2.1469678e-19)
(0.26161163 -7.0203557e-05 1.0815307e-19)
(0.24949925 -3.7283203e-05 -5.2168922e-20)
(0.23456828 -1.5277056e-05 -3.5755656e-19)
(0.21452909 -3.5978711e-06 -1.5632301e-19)
(0.18027234 6.8891866e-07 -4.4225706e-20)
(0.29172336 -2.8634279e-05 -1.8023736e-18)
(0.291596 -7.1037634e-05 -3.6258216e-19)
(0.29123415 -0.00010950892 2.6300486e-19)
(0.29040962 -0.00014383257 -1.5113719e-20)
(0.28863287 -0.00016470429 5.5898915e-19)
(0.28513156 -0.00016308395 2.8090894e-19)
(0.27931466 -0.00013652205 1.8612545e-19)
(0.27124896 -9.7093552e-05 8.932226e-20)
(0.26122524 -5.9353645e-05 1.6142312e-19)
(0.24918522 -3.0190173e-05 4.0384718e-19)
(0.23436395 -1.1270297e-05 2.3002683e-19)
(0.2144337 -1.7305478e-06 -6.5679149e-21)
(0.18026136 1.1761576e-06 7.0851267e-20)
(0.29274252 -2.8196034e-05 1.9487519e-18)
(0.29259116 -6.985846e-05 3.747888e-19)
(0.29216305 -0.00010717576 -5.0619353e-19)
(0.29119393 -0.00013933085 1.2249696e-19)
(0.28914031 -0.00015631032 6.4572594e-19)
(0.28525057 -0.00014996782 3.5667584e-19)
(0.27910837 -0.00012129297 1.3417691e-19)
(0.2708978 -8.3692843e-05 1.1749758e-19)
(0.26087272 -4.9471602e-05 7.5073147e-20)
(0.24890802 -2.3766773e-05 2.7701636e-19)
(0.23419085 -7.6476573e-06 4.0725156e-19)
(0.21436056 -1.625761e-08 1.8845738e-19)
(0.18026627 1.640397e-06 -3.2707921e-20)
(0.2937446 -2.7725099e-05 1.4770099e-18)
(0.29356496 -6.858319e-05 5.8449444e-19)
(0.29305914 -0.00010460504 1.824059e-19)
(0.29192334 -0.00013429445 4.4820272e-20)
(0.28956868 -0.00014712078 6.1856861e-19)
(0.2853013 -0.00013649478 1.5991434e-19)
(0.27888121 -0.00010666836 -9.9912045e-20)
(0.27056351 -7.1310472e-05 2.2473565e-19)
(0.26055265 -4.0462893e-05 3.899094e-19)
(0.24866458 -1.7940256e-05 2.9489756e-19)
(0.23404606 -4.3539082e-06 4.7612476e-19)
(0.21430781 1.5374051e-06 2.3950486e-19)
(0.18028522 2.0563875e-06 5.0360495e-21)
(0.29472815 -2.7211025e-05 9.4213792e-19)
(0.29451518 -6.7183246e-05 -9.8413887e-20)
(0.29391842 -0.00010173906 -1.3815214e-19)
(0.29259237 -0.00012864185 6.1552879e-19)
(0.28991788 -0.00013716949 -1.0511002e-19)
(0.28529395 -0.00012286451 -5.6774028e-20)
(0.27864192 -9.2752923e-05 5.5647129e-19)
(0.27024822 -5.988244e-05 7.6071495e-19)
(0.26026336 -3.2238663e-05 2.3176823e-19)
(0.24845204 -1.2642379e-05 -4.0597653e-19)
(0.23392646 -1.3358844e-06 -3.4988672e-19)
(0.21427448 2.9561745e-06 -1.6264233e-20)
(0.18031663 2.4263108e-06 -1.73494e-20)
(0.29569132 -2.6641403e-05 5.6190237e-19)
(0.2954391 -6.5625549e-05 4.2275687e-19)
(0.29473631 -9.8512687e-05 1.6273232e-18)
(0.29319592 -0.0001223057 9.507247e-19)
(0.29019018 -0.00012653597 -7.8221242e-20)
(0.2852389 -0.00010927515 4.1672456e-19)
(0.27839743 -7.9607263e-05 5.6860604e-19)
(0.26995312 -4.9342226e-05 3.0774498e-19)
(0.26000309 -2.4722179e-05 -3.3522427e-20)
(0.24826773 -7.8150943e-06 2.1437035e-19)
(0.23382956 1.4151453e-06 -1.4000918e-19)
(0.21425921 4.2390775e-06 -6.1448226e-20)
(0.18035932 2.7544332e-06 4.153987e-20)
(0.29663173 -2.6001182e-05 1.3294663e-18)
(0.29633339 -6.3871158e-05 1.468226e-18)
(0.29550768 -9.4853898e-05 1.5412452e-18)
(0.29372976 -0.0001152412 9.3156953e-20)
(0.29039011 -0.00011533898 5.0969116e-19)
(0.28514604 -9.5905386e-05 3.6876889e-19)
(0.27815305 -6.725414e-05 1.8938431e-20)
(0.26967872 -3.9623334e-05 2.0691255e-19)
(0.25977003 -1.7841858e-05 2.5031855e-19)
(0.24810923 -3.3839704e-06 7.1106993e-19)
(0.23375398 3.931202e-06 4.8453074e-19)
(0.21425996 5.3906072e-06 1.929101e-19)
(0.18041214 3.0443385e-06 2.274258e-19)
(0.29754645 -2.527239e-05 2.8664401e-18)
(0.29719411 -6.1874453e-05 3.1791834e-18)
(0.29622706 -9.0687765e-05 -2.9820404e-19)
(0.29419101 -0.0001074348 -1.0721797e-19)
(0.290524 -0.00010372738 7.1310968e-19)
(0.28502427 -8.2903373e-05 3.4386955e-19)
(0.27791277 -5.5688943e-05 2.79361e-19)
(0.269425 -3.0662239e-05 -1.1201851e-21)
(0.25956226 -1.1539688e-05 2.0313665e-19)
(0.24797362 6.7589019e-07 1.4504784e-19)
(0.23369893 6.2277151e-06 2.6709374e-19)
(0.21427538 6.4296331e-06 1.7868771e-19)
(0.18047413 3.3030855e-06 3.2218191e-20)
(0.29843186 -2.4434089e-05 1.0035947e-18)
(0.29801658 -5.9582981e-05 1.6856522e-18)
(0.29688883 -8.5943399e-05 7.9090703e-19)
(0.29457851 -9.8910851e-05 1.7812858e-19)
(0.29059935 -9.1868438e-05 5.2519732e-19)
(0.28488126 -7.0382629e-05 4.8711182e-19)
(0.27767954 -4.4890687e-05 2.4637099e-19)
(0.26919163 -2.2395849e-05 2.8032368e-19)
(0.25937815 -5.7364216e-06 3.694599e-19)
(0.24785972 4.3904798e-06 6.1029603e-20)
(0.2336621 8.3015936e-06 9.9821999e-20)
(0.21430404 7.3666962e-06 9.2055485e-20)
(0.18054443 3.5354645e-06 4.6255297e-21)
(0.29928359 -2.3462153e-05 7.9335127e-19)
(0.29879547 -5.6937593e-05 -6.3431457e-19)
(0.29748763 -8.0561625e-05 1.1077632e-18)
(0.29489309 -8.9732434e-05 1.1235974e-18)
(0.29062422 -7.9932345e-05 -4.2484604e-19)
(0.28472341 -5.8420108e-05 3.7921715e-19)
(0.27745536 -3.4827535e-05 7.4393969e-19)
(0.26897783 -1.477041e-05 8.2929355e-19)
(0.25921519 -3.9180034e-07 2.2027652e-19)
(0.24776702 7.7920434e-06 -4.5222976e-19)
(0.23364198 1.0181101e-05 -4.5171749e-19)
(0.21434474 8.2147622e-06 -2.381161e-20)
(0.18062225 3.7449979e-06 3.5220318e-20)
(0.30009637 -2.232973e-05 -2.5778143e-19)
(0.29952479 -5.3875499e-05 1.1355777e-18)
(0.29801875 -7.4505258e-05 1.1541957e-19)
(0.29513749 -7.9999955e-05 9.9203298e-19)
(0.29060659 -6.8080584e-05 3.5642844e-20)
(0.28455591 -4.7062483e-05 3.8733047e-19)
(0.27724164 -2.5459228e-05 6.6144875e-19)
(0.2687829 -7.715671e-06 -8.1352413e-21)
(0.25907248 4.5153912e-06 5.241898e-20)
(0.24769347 1.0881383e-05 -1.5879361e-19)
(0.23363709 1.1884862e-05 -1.5927632e-19)
(0.21439637 8.9837422e-06 -1.610317e-20)
(0.1807069 3.9343487e-06 -8.2884475e-20)
(0.30086402 -2.1007838e-05 -1.3165236e-18)
(0.30019808 -5.0335142e-05 2.1925224e-18)
(0.29847859 -6.7767505e-05 1.0697982e-18)
(0.29531608 -6.9843627e-05 -5.9167735e-19)
(0.29055391 -5.6454428e-05 8.5669903e-19)
(0.28438287 -3.6332027e-05 3.4651042e-19)
(0.27703906 -1.6748266e-05 -2.1103321e-20)
(0.2686053 -1.1875275e-06 -2.5103812e-19)
(0.25894976 9.0213364e-06 1.1739104e-19)
(0.24763751 1.3689796e-05 3.9023891e-19)
(0.23364609 1.3431089e-05 3.2744668e-19)
(0.21445793 9.6806825e-06 -1.3200219e-19)
(0.18079772 4.1050211e-06 -6.7974695e-20)
(0.30157943 -1.9467192e-05 1.1805852e-18)
(0.30080863 -4.6264343e-05 3.0675939e-18)
(0.29886499 -6.0378833e-05 2.0459596e-18)
(0.29543444 -5.9413959e-05 -2.7970838e-19)
(0.29047287 -4.5169372e-05 5.3333878e-19)
(0.28420752 -2.6229156e-05 2.0949316e-19)
(0.27684812 -8.6362714e-06 3.7277392e-20)
(0.26844451 4.8386444e-06 -5.5473809e-21)
(0.25884557 1.3135767e-05 -5.6288085e-20)
(0.2475977 1.6244097e-05 1.8573975e-19)
(0.23366777 1.4835356e-05 2.4610403e-19)
(0.21452852 1.0311986e-05 -1.2323082e-19)
(0.18089414 4.2585315e-06 -9.5245392e-20)
(0.30223466 -1.7681571e-05 1.5082294e-18)
(0.3013499 -4.1630432e-05 2.3984508e-18)
(0.29917751 -5.2409544e-05 1.1036899e-18)
(0.29549883 -4.8869427e-05 1.0504058e-18)
(0.29036918 -3.4313657e-05 7.9070311e-19)
(0.28403214 -1.6747517e-05 4.4989771e-19)
(0.27666826 -1.08911e-06 6.163626e-19)
(0.26830088 1.0390977e-05 1.3677797e-20)
(0.25875851 1.6888485e-05 -2.7160835e-21)
(0.24757272 1.8568185e-05 -6.1338355e-20)
(0.23370102 1.6110022e-05 1.7396318e-19)
(0.21460732 1.0882763e-05 7.8288087e-22)
(0.18099561 4.3960754e-06 -1.2352349e-19)
(0.30282117 -1.5633392e-05 1.5654121e-18)
(0.30181594 -3.643149e-05 1.6340121e-18)
(0.29941741 -4.3968562e-05 2.2527675e-19)
(0.29551566 -3.8365472e-05 7.9519387e-19)
(0.2902477 -2.3945229e-05 9.1869885e-19)
(0.28385859 -7.8477294e-06 5.9340006e-19)
(0.27649982 5.9141209e-06 2.1945955e-19)
(0.26817344 1.5479812e-05 1.7676455e-19)
(0.25868728 2.031084e-05 1.8501216e-19)
(0.24756135 2.0682636e-05 1.7504681e-19)
(0.23374484 1.7265702e-05 1.4558525e-19)
(0.21469357 1.1397587e-05 6.936765e-20)
(0.18110164 4.5187601e-06 -7.1226698e-20)
(0.30333026 -1.3320791e-05 3.9591261e-18)
(0.30220189 -3.0705592e-05 3.08745e-18)
(0.29958744 -3.519638e-05 1.3270791e-18)
(0.29549103 -2.8043653e-05 4.2656677e-19)
(0.29011218 -1.4099848e-05 9.2768882e-20)
(0.28368733 4.8516632e-07 1.4572021e-19)
(0.276344 1.2388895e-05 -5.3934489e-19)
(0.26806119 2.0135124e-05 -2.6893272e-20)
(0.2586307 2.3431349e-05 3.339869e-19)
(0.24756246 2.2604564e-05 5.0856907e-19)
(0.23379832 1.8311472e-05 2.8048761e-19)
(0.21478659 1.1860466e-05 3.894118e-19)
(0.18121176 4.6275478e-06 4.6398912e-20)
(0.30375374 -1.0764904e-05 1.0453377e-18)
(0.30250438 -2.4536357e-05 2.028371e-18)
(0.29969147 -2.6255598e-05 3.4126967e-18)
(0.29543051 -1.8024203e-05 1.84489e-19)
(0.28996562 -4.7858172e-06 -4.8681518e-20)
(0.28352015 8.2431166e-06 -1.0203738e-19)
(0.27620025 1.8335882e-05 4.2148841e-21)
(0.26796311 2.4389466e-05 8.8453225e-20)
(0.25858763 2.6274657e-05 1.0043737e-19)
(0.24757502 2.4348913e-05 3.1914964e-19)
(0.2338606 1.9255536e-05 2.1811858e-19)
(0.21488574 1.2275086e-05 7.8865178e-20)
(0.18132555 4.7233421e-06 8.2627516e-20)
(0.30408466 -8.0145743e-06 8.5055794e-19)
(0.30272186 -1.8051792e-05 3.0264797e-18)
(0.29973407 -1.7315888e-05 2.48767e-18)
(0.29533886 -8.3895869e-06 4.4268462e-19)
(0.28980995 3.9789592e-06 6.8739646e-20)
(0.28335875 1.5424498e-05 -1.2211321e-19)
(0.27606809 2.3784733e-05 1.5633652e-19)
(0.26787825 2.8272282e-05 9.9370309e-20)
(0.25855702 2.8860167e-05 -5.1605661e-20)
(0.24759809 2.5927617e-05 -6.7341474e-21)
(0.23393092 2.0104415e-05 1.962506e-19)
(0.21499043 1.2644234e-05 3.4418953e-20)
(0.1814426 4.8067256e-06 5.4648741e-20)
(0.30431819 -5.1449425e-06 1.8404885e-18)
(0.30285461 -1.1412638e-05 1.5376685e-18)
(0.29971994 -8.5331623e-06 -1.8232782e-20)
(0.29521955 7.8208224e-07 1.2889823e-18)
(0.28964857 1.214308e-05 1.3502085e-19)
(0.28320331 2.2022618e-05 2.5572159e-19)
(0.27594691 2.876512e-05 5.4301318e-19)
(0.26780566 3.1808693e-05 1.6631245e-19)
(0.25853789 3.1205173e-05 3.1131629e-21)
(0.24763076 2.7351714e-05 -4.4397298e-19)
(0.23400854 2.0864203e-05 1.8805259e-20)
(0.2151001 1.2970554e-05 -6.6317848e-20)
(0.18156252 4.8782881e-06 1.1279865e-20)
(0.30445222 -2.2472315e-06 5.7209947e-19)
(0.30290466 -4.7892367e-06 7.7773268e-19)
(0.2996534 -5.7445252e-08 3.6942154e-19)
(0.29507686 9.3868689e-06 1.2498871e-18)
(0.28948321 1.9670546e-05 8.8658491e-19)
(0.28305386 2.8057792e-05 7.9763028e-19)
(0.27583605 3.3302668e-05 7.1845538e-19)
(0.26774441 3.5018183e-05 3.7003323e-19)
(0.25852929 3.3323425e-05 -2.0107743e-20)
(0.24767222 2.8629904e-05 -2.1578331e-19)
(0.23409279 2.1539489e-05 -1.1101088e-19)
(0.21521426 1.3255893e-05 -3.2552539e-20)
(0.18168496 4.938358e-06 7.6490209e-21)
(0.30448759 5.8143203e-07 8.3580839e-19)
(0.30287533 1.6331944e-06 1.7400537e-18)
(0.29953939 7.9403808e-06 5.2663645e-19)
(0.29491435 1.7334236e-05 9.9702964e-19)
(0.28931491 2.6550375e-05 1.1180123e-18)
(0.28291026 3.3548705e-05 3.8189788e-19)
(0.2757348 3.7416507e-05 -1.0932905e-19)
(0.26769361 3.7916257e-05 -2.1114426e-22)
(0.25853035 3.5226096e-05 3.3926693e-20)
(0.24772169 2.9769063e-05 2.435775e-19)
(0.23418305 2.2133724e-05 -1.0030731e-21)
(0.2153324 1.3501523e-05 2.698298e-19)
(0.18180955 4.9870838e-06 2.6910122e-20)
(0.30442824 3.2381396e-06 -5.2444613e-19)
(0.30277199 7.6569828e-06 1.2738467e-18)
(0.29938292 1.5303999e-05 1.7273131e-18)
(0.29473444 2.4565362e-05 -1.2250914e-19)
(0.28914434 3.2781683e-05 2.4377848e-19)
(0.28277222 3.8508108e-05 1.2921936e-19)
(0.27564244 4.1120431e-05 -2.4710923e-19)
(0.26765239 4.0514569e-05 -5.7943285e-20)
(0.25854021 3.6921342e-05 2.751181e-20)
(0.24777843 3.0773883e-05 1.4147735e-19)
(0.23427872 2.2648988e-05 -1.1842826e-19)
(0.21545406 1.370801e-05 -1.7139354e-19)
(0.18193595 5.0243913e-06 -9.544173e-21)
(0.30428148 5.6355908e-06 5.2916314e-19)
(0.30260141 1.3122381e-05 1.8915076e-18)
(0.29918843 2.1930416e-05 1.1541148e-18)
(0.29453912 3.1047512e-05 1.1263473e-19)
(0.28897192 3.8362674e-05 5.7408136e-19)
(0.28263933 4.2943532e-05 6.827758e-19)
(0.2755582 4.4423822e-05 1.7436945e-19)
(0.26761989 4.2820966e-05 -7.0704405e-20)
(0.25855808 3.8414234e-05 -1.7107214e-20)
(0.24784174 3.1646833e-05 1.4153561e-19)
(0.23437921 2.3085948e-05 1.3667803e-19)
(0.21557877 1.3875163e-05 -2.780852e-21)
(0.18206381 5.0499507e-06 2.978417e-20)
(0.30405678 7.7205452e-06 1.0687007e-18)
(0.30237113 1.7926712e-05 1.6523621e-18)
(0.29896016 2.7756814e-05 1.4849045e-18)
(0.29433004 3.6759513e-05 6.9694254e-19)
(0.28879784 4.3290993e-05 6.9735676e-19)
(0.2825111 4.6859602e-05 6.0493865e-19)
(0.2754813 4.7332592e-05 5.0879228e-19)
(0.26759529 4.4839933e-05 3.2892084e-19)
(0.25858316 3.9707087e-05 2.9229941e-19)
(0.24791094 3.2388388e-05 1.5576568e-19)
(0.23448396 2.3443992e-05 1.4644968e-19)
(0.21570609 1.4002109e-05 1.4167158e-19)
(0.18219278 5.0632093e-06 3.4502083e-20)
(0.30376497 9.4676967e-06 -1.3716192e-18)
(0.30208914 2.2015488e-05 7.7033786e-19)
(0.29870222 3.2751933e-05 1.6162585e-18)
(0.29410866 4.1691459e-05 1.2426662e-18)
(0.2886222 4.7566322e-05 1.3116472e-19)
(0.28238699 5.0259489e-05 2.1952182e-19)