/*--------------------------------*- C++ -*----------------------------------*\
| =========                 |                                                 |
| \\      /  F ield         | OpenFOAM: The Open Source CFD Toolbox           |
|  \\    /   O peration     | Version:  2506                                  |
|   \\  /    A nd           | Website:  www.openfoam.com                      |
|    \\/     M anipulation  |                                                 |
\*---------------------------------------------------------------------------*/
FoamFile
{
    version     2.0;
    format      ascii;
    arch        "LSB;label=32;scalar=64";
    class       volScalarField;
    location    "26000/water";
    object      alphat;
}
// * * * * * * * * * * * * * * * * * * * * * * * * * * * * * * * * * * * * * //

dimensions      [1 -1 -1 0 0 0 0];

internalField   nonuniform List<scalar> 
2600
(
0.040489031
0.04048893
0.040488932
0.040488969
0.04048893
0.040488424
0.040485257
0.04046703
0.040362559
0.039762099
0.036475623
0.024118064
0.014862723
0.039376404
0.039376463
0.039376584
0.03937667
0.03937627
0.039373342
0.039357935
0.03928206
0.038918252
0.037247647
0.030707814
0.017504579
0.016810247
0.03845331
0.038453299
0.038453385
0.038453188
0.038451259
0.038441479
0.038397507
0.038208927
0.037432867
0.034484227
0.025768479
0.01464355
0.017680736
0.037674097
0.037673994
0.037673876
0.037672833
0.03766736
0.037643826
0.037549741
0.037190974
0.035896577
0.031717985
0.022022178
0.013507107
0.017935556
0.037006829
0.037006634
0.03700605
0.037003229
0.036991211
0.03694503
0.036777672
0.036201229
0.034343725
0.029136321
0.019390213
0.01332192
0.01787019
0.036428097
0.036427705
0.036426239
0.036420305
0.036397905
0.036319194
0.03605724
0.035231095
0.03281421
0.026833154
0.017684561
0.01376901
0.017658004
0.035920433
0.035919673
0.03591673
0.035905979
0.035868817
0.035747845
0.035374204
0.034281783
0.031338745
0.024847734
0.016751764
0.014701365
0.017395975
0.035470606
0.03546924
0.035464057
0.035446499
0.035390052
0.035218253
0.034721129
0.033357857
0.029935921
0.02320089
0.016491475
0.016024754
0.017137191
0.035068412
0.03506614
0.035057811
0.035031314
0.034951338
0.034722033
0.034094772
0.032463227
0.028616047
0.021918168
0.016839593
0.01764423
0.016909598
0.034705855
0.034702323
0.034689851
0.034652315
0.034545228
0.034254009
0.03349406
0.031599319
0.027389013
0.021039007
0.017742706
0.019446829
0.016725717
0.034376582
0.0343714
0.034353768
0.03430331
0.034166516
0.033811296
0.032918608
0.030765036
0.026274288
0.020612421
0.019134168
0.021310297
0.0165878
0.034075484
0.034068256
0.034044512
0.033979658
0.033811775
0.033392551
0.032367695
0.029958513
0.025310237
0.020682514
0.02092045
0.023125092
0.01649134
0.03379842
0.033788771
0.033758129
0.033677993
0.033478994
0.032997353
0.031839673
0.02918092
0.024557974
0.02127068
0.022983309
0.024813263
0.016428198
0.033542011
0.033529635
0.033491576
0.033396025
0.033167279
0.032625685
0.031331906
0.028442261
0.02409531
0.022362412
0.025195922
0.02633397
0.016389375
0.033303501
0.033288203
0.033242589
0.033132389
0.0328766
0.032277488
0.030841497
0.027768048
0.02400108
0.023903805
0.027443848
0.027676786
0.016366908
0.033080659
0.033062404
0.03300959
0.032886524
0.032607559
0.031952311
0.030367145
0.027204005
0.024336012
0.025808537
0.029640409
0.028850256
0.01635471
0.032871707
0.032850677
0.032791627
0.032658586
0.032361164
0.031649138
0.029912405
0.026815113
0.025128027
0.02797256
0.03173126
0.029871993
0.016348606
0.032675278
0.032651931
0.032588332
0.032449362
0.032138606
0.031366538
0.029490155
0.026676983
0.026366619
0.030291377
0.033689746
0.030762437
0.016345973
0.032490392
0.032465523
0.0323999
0.032260198
0.031941021
0.031103392
0.029127149
0.026861558
0.028006318
0.032674378
0.035508201
0.031541612
0.016345289
0.03231644
0.032291251
0.032227075
0.032092906
0.0317693
0.030860474
0.028866522
0.027422393
0.029976613
0.035052628
0.037189758
0.032227634
0.016345749
0.032153193
0.032129365
0.032071151
0.03194966
0.031623986
0.030643052
0.028765903
0.02838467
0.032194879
0.037379733
0.038742717
0.032836122
0.016346971
0.032000817
0.031980587
0.031933965
0.031832869
0.031505423
0.030464306
0.028890212
0.029742273
0.034578901
0.039628044
0.040177392
0.033380113
0.016348813
0.031859898
0.031846136
0.031817892
0.031745018
0.031414332
0.030348688
0.029300797
0.031461312
0.037056246
0.041783222
0.041504536
0.033870256
0.016351246
0.031731488
0.031727775
0.031725824
0.031688525
0.031353059
0.030333688
0.030044462
0.033487923
0.039569148
0.043839371
0.042734574
0.034315149
0.016354289
0.031617156
0.031627852
0.031661122
0.031665645
0.031327614
0.030468387
0.031145806
0.035757856
0.0420752
0.045795587
0.043877206
0.034721697
0.016357969
0.031519059
0.031549348
0.031627544
0.031678557
0.031350383
0.030808111
0.032604576
0.038205555
0.04454529
0.047653845
0.044941228
0.035095449
0.016362307
0.03144002
0.031495925
0.031629136
0.031729779
0.031442844
0.031406227
0.034397775
0.040771056
0.046960461
0.049417767
0.045934482
0.035440884
0.01636731
0.031383622
0.031471952
0.031670108
0.031823118
0.031637177
0.032305484
0.036485148
0.043403917
0.049308926
0.051091868
0.046863898
0.035761639
0.016372969
0.03135431
0.031482518
0.031754744
0.031965285
0.031975484
0.033531429
0.038816237
0.046064368
0.051583777
0.052681075
0.047735569
0.036060697
0.016379266
0.031357497
0.031533412
0.031887427
0.032168113
0.032505948
0.035089415
0.041337353
0.048722501
0.053781414
0.054190413
0.048554845
0.036340523
0.016386174
0.03139966
0.031631057
0.032072922
0.032450917
0.033276479
0.036965359
0.043997177
0.051356532
0.055900501
0.055624816
0.049326446
0.036603253
0.016393659
0.031488427
0.031782429
0.032317111
0.032842102
0.034327515
0.039129421
0.046750336
0.053950904
0.057941209
0.056988872
0.050054079
0.036848497
0.016401672
0.031632621
0.031994974
0.032628309
0.033378945
0.035685989
0.041541299
0.049558963
0.056494678
0.059904712
0.058286897
0.050741221
0.037078057
0.016410157
0.031842264
0.03227662
0.033019161
0.034104836
0.037361923
0.044155827
0.052392704
0.058980314
0.061792803
0.059522745
0.051390016
0.037293986
0.01641906
0.032128529
0.03263602
0.033508767
0.035064173
0.039348099
0.046927792
0.055227845
0.061402768
0.063607628
0.060699924
0.052002666
0.037497688
0.016428334
0.032503668
0.033083201
0.03412429
0.036296088
0.041622389
0.049815344
0.058046122
0.063758849
0.065351536
0.06182163
0.052582573
0.037690188
0.016437944
0.032980999
0.033630792
0.03490105
0.03782872
0.044151803
0.05278186
0.060833579
0.066046675
0.067026699
0.062889499
0.053132467
0.037872529
0.016447871
0.033575091
0.034295799
0.035880357
0.039675439
0.046897148
0.055796503
0.063579601
0.068265336
0.068635575
0.063907361
0.053654307
0.038045476
0.016458088
0.034302365
0.0351016
0.037105063
0.041833716
0.049817347
0.058833939
0.066276162
0.070414404
0.07017912
0.064878408
0.054150003
0.038209789
0.016468569
0.035182277
0.036079353
0.038613761
0.044286507
0.052872742
0.061873607
0.068917187
0.072494038
0.0716602
0.06580522
0.054621173
0.038366091
0.016479288
0.036239044
0.037267814
0.040435159
0.047005442
0.056027185
0.064898925
0.071498036
0.074503828
0.07308149
0.066690106
0.055069332
0.038514922
0.016490219
0.037503423
0.038710795
0.042584052
0.049954871
0.059248945
0.06789647
0.074015186
0.076444643
0.074445476
0.067535118
0.055495819
0.038656743
0.016501335
0.03901351
0.040452277
0.045059726
0.053095839
0.06251085
0.070855335
0.076465321
0.078317605
0.075754297
0.068342159
0.05590182
0.03879195
0.01651261
0.040813317
0.042530171
0.047846818
0.056389303
0.065789808
0.073766503
0.078846457
0.080124241
0.077009855
0.069112927
0.056288375
0.038920875
0.016524018
0.042948331
0.044970333
0.050918061
0.059798382
0.06906632
0.076621963
0.081156908
0.081865784
0.078213914
0.069848931
0.056656385
0.039043797
0.016535535
0.045458392
0.047782303
0.054237952
0.063289391
0.072323491
0.079415206
0.08339634
0.083543324
0.079368015
0.070551486
0.057006623
0.039160943
0.016547135
0.048369513
0.050957578
0.057766471
0.066832249
0.075546564
0.082140752
0.085564142
0.085157816
0.080473492
0.071221714
0.057339738
0.039272495
0.016558793
0.05168695
0.054470435
0.061462131
0.070399941
0.078722009
0.084794931
0.087659716
0.086710012
0.081531451
0.07186055
0.057656259
0.039378589
0.016570485
0.055391527
0.058280582
0.065283703
0.073967572
0.081839638
0.087374137
0.089682357
0.088200428
0.082542759
0.072468741
0.057956606
0.039479318
0.016582185
0.059440097
0.062336549
0.069190836
0.077514039
0.084890605
0.089874912
0.09163118
0.089629316
0.083508036
0.073046849
0.058241083
0.039574737
0.016593868
0.063769532
0.066579769
0.073146331
0.081021503
0.087866762
0.092293833
0.093505075
0.090996648
0.084427651
0.073595248
0.058509891
0.039664859
0.016605508
0.068304202
0.07094916
0.077116139
0.084473725
0.090760493
0.094627441
0.095302682
0.092302101
0.085301716
0.074114131
0.058763124
0.039749659
0.016617076
0.07296396
0.075384337
0.081068517
0.087855762
0.093564604
0.096872229
0.097022392
0.093545068
0.086130097
0.074603508
0.05900077
0.039829076
0.016628546
0.077671164
0.07982831
0.08497399
0.091153771
0.096272275
0.099024656
0.098662383
0.094724683
0.086912425
0.075063222
0.059222723
0.039903012
0.016639885
0.082355741
0.084229485
0.088805447
0.094354917
0.098877076
0.10108122
0.10022068
0.095839864
0.087648131
0.075492962
0.059428786
0.039971336
0.016651062
0.086958056
0.08854295
0.092538372
0.097447391
0.10137302
0.10303854
0.10169527
0.096889389
0.088336488
0.075892292
0.059618687
0.040033888
0.01666204
0.091429911
0.092731118
0.09615112
0.1004205
0.10375468
0.10489349
0.10308416
0.097871975
0.088976669
0.076260685
0.059792096
0.040090491
0.016672784
0.095734196
0.09676379
0.099625163
0.10326482
0.10601725
0.10664331
0.10438556
0.098786383
0.089567824
0.076597569
0.059948652
0.040140953
0.016683255
0.09984377
0.1006178
0.10294525
0.1059723
0.10815671
0.10828574
0.10559797
0.099631526
0.090109157
0.076902384
0.060087992
0.040185087
0.01669341
0.10374
0.10427633
0.10609942
0.10853645
0.11016992
0.10981912
0.10672029
0.10040657
0.09060001
0.077174637
0.060209786
0.04022272
0.01670321
0.10741122
0.10772816
0.10907891
0.11095234
0.11205465
0.11124243
0.10775193
0.10111101
0.091039944
0.077413963
0.060313775
0.040253711
0.016712613
0.1108514
0.11096676
0.11187797
0.11321668
0.11380968
0.11255543
0.10869285
0.1017448
0.091428806
0.077620176
0.060399799
0.040277968
0.016721579
0.11405884
0.11398949
0.11449352
0.11532777
0.11543479
0.1137586
0.10954364
0.10230831
0.091766785
0.077793318
0.060467834
0.040295453
0.016730071
0.11703524
0.11679686
0.1169249
0.11728538
0.11693073
0.11485316
0.11030548
0.10280246
0.092054447
0.077933691
0.06051801
0.040306205
0.016738056
0.11978486
0.11939186
0.11917347
0.11909068
0.11829916
0.11584108
0.11098017
0.10322865
0.092292754
0.078041876
0.06055063
0.040310336
0.016745504
0.12231388
0.12177942
0.12124233
0.12074607
0.11954263
0.11672495
0.11157009
0.10358876
0.092483056
0.078118741
0.060566178
0.040308039
0.016752394
0.12462985
0.12396595
0.12313594
0.12225501
0.12066442
0.11750799
0.11207809
0.10388513
0.092627077
0.078165432
0.06056531
0.040299588
0.016758708
0.12674134
0.12595893
0.12485991
0.12362188
0.1216685
0.11819392
0.11250752
0.1041205
0.092726883
0.078183353
0.060548849
0.040285328
0.016764436
0.12865761
0.12776666
0.12642069
0.12485177
0.12255936
0.1187869
0.11286208
0.10429796
0.09278483
0.078174139
0.060517766
0.040265671
0.016769576
0.13038835
0.12939794
0.12782538
0.12595039
0.12334198
0.11929146
0.11314577
0.10442085
0.092803525
0.078139617
0.060473159
0.040241083
0.01677413
0.13194349
0.13086194
0.12908155
0.12692388
0.12402168
0.11971237
0.11336285
0.10449276
0.092785763
0.078081769
0.060416221
0.040212071
0.016778109
0.13333306
0.13216799
0.13019706
0.12777871
0.12460401
0.12005462
0.11351772
0.1045174
0.092734479
0.078002689
0.06034822
0.040179171
0.016781528
0.13456707
0.13332546
0.13117994
0.12852154
0.12509472
0.1203233
0.11361487
0.1044986
0.092652695
0.077904541
0.060270468
0.040142935
0.016784407
0.13565542
0.13434369
0.13203827
0.12915917
0.12549964
0.12052357
0.11365885
0.10444019
0.092543469
0.077789523
0.060184295
0.040103918
0.01678677
0.13660779
0.13523185
0.13278012
0.1296984
0.12582462
0.12066058
0.11365418
0.10434602
0.092409855
0.077659831
0.060091026
0.040062667
0.016788647
0.13743365
0.13599894
0.13341343
0.13014601
0.1260755
0.12073943
0.11360532
0.10421987
0.092254863
0.077517625
0.059991957
0.040019712
0.016790068
0.13814216
0.1366537
0.13394599
0.13050867
0.126258
0.12076515
0.11351666
0.10406543
0.092081422
0.077365002
0.05988834
0.03997556
0.016791064
0.13874215
0.13720458
0.13438538
0.13079291
0.12637775
0.12074261
0.11339242
0.10388628
0.091892359
0.077203974
0.059781365
0.039930682
0.01679167
0.13924212
0.13765971
0.13473892
0.13100506
0.12644019
0.12067655
0.11323669
0.10368583
0.091690369
0.077036449
0.059672147
0.039885516
0.016791921
0.13965017
0.13802689
0.13501366
0.13115126
0.12645059
0.12057152
0.11305339
0.10346734
0.091478003
0.076864217
0.059561723
0.039840459
0.016791849
0.13997405
0.13831356
0.13521637
0.13123738
0.12641402
0.12043187
0.11284622
0.1032339
0.09125765
0.076688936
0.059451037
0.039795865
0.016791489
0.14022112
0.13852679
0.13535348
0.13126906
0.1263353
0.12026175
0.11261872
0.10298839
0.091031532
0.076512132
0.059340942
0.039752047
0.016790873
0.14039834
0.1386733
0.13543113
0.13125166
0.12621904
0.12006509
0.11237417
0.10273349
0.090801697
0.07633519
0.0592322
0.039709276
0.016790032
0.1405123
0.13875943
0.13545512
0.13119026
0.12606961
0.11984558
0.11211569
0.10247171
0.090570016
0.076159355
0.059125478
0.03966778
0.016788997
0.14056919
0.13879117
0.13543094
0.13108967
0.1258911
0.11960669
0.11184614
0.10220534
0.090338189
0.075985737
0.059021356
0.039627749
0.016787794
0.14057486
0.13877414
0.13536374
0.13095443
0.12568741
0.11935169
0.11156819
0.10193647
0.09010774
0.075815297
0.05892028
0.039589124
0.01678645
0.14053476
0.13871363
0.13525838
0.1307888
0.12546215
0.11908359
0.1112843
0.10166701
0.089880021
0.075648858
0.058822604
0.039551853
0.016784985
0.14045402
0.13861458
0.13511941
0.13059678
0.12521873
0.1188052
0.11099673
0.10139867
0.089656201
0.075487056
0.058728349
0.039516229
0.016783419
0.14033742
0.13848161
0.13495108
0.13038209
0.12496029
0.11851912
0.11070752
0.10113296
0.089437308
0.075330471
0.058637855
0.039482376
0.01678177
0.14018941
0.13831903
0.13475736
0.13014821
0.12468977
0.11822773
0.11041852
0.10087123
0.089224136
0.075179234
0.05855156
0.039450386
0.01678006
0.14001414
0.13813084
0.13454192
0.12989837
0.12440986
0.11793319
0.11013138
0.10061461
0.08901732
0.07503404
0.058469612
0.039420312
0.016778308
0.13981545
0.13792076
0.13430819
0.12963555
0.12412306
0.11763748
0.10984758
0.1003641
0.088817409
0.074895358
0.05839214
0.039392189
0.016776531
0.13959689
0.13769222
0.13405932
0.12936251
0.12383163
0.11734237
0.10956836
0.10012034
0.088625209
0.074763437
0.058319229
0.039366029
0.016774743
0.13936173
0.13744838
0.13379821
0.12908175
0.12353763
0.1170494
0.10929475
0.099884305
0.088441191
0.074638458
0.058250917
0.039341824
0.01677296
0.13911299
0.13719216
0.13352754
0.12879558
0.12324291
0.11675994
0.10902776
0.099656773
0.088265699
0.074520537
0.058187203
0.039319549
0.016771192
0.13885342
0.13692621
0.13324972
0.12850607
0.12294906
0.11647513
0.10876846
0.099438295
0.088098988
0.07440973
0.05812805
0.039299163
0.016769449
0.13858553
0.13665295
0.13296695
0.12821501
0.12265749
0.11619631
0.10851765
0.099229305
0.087941224
0.074306034
0.058073389
0.039280611
0.016767742
0.13831159
0.13637455
0.13268113
0.12792406
0.12236972
0.1159245
0.10827598
0.099030132
0.087792496
0.074209399
0.058023124
0.039263831
0.016766076
0.13803362
0.13609292
0.13239408
0.12763485
0.12208702
0.11566061
0.10804398
0.098841009
0.087652824
0.074119728
0.057977135
0.039248752
0.016764459
0.13775346
0.13580988
0.13210748
0.12734885
0.1218105
0.11540538
0.10782207
0.09866208
0.087522167
0.074036887
0.057935286
0.039235296
0.016762895
0.13747282
0.1355271
0.13182288
0.12706733
0.12154112
0.11515944
0.10761056
0.098493416
0.087400432
0.073960711
0.057897424
0.039223384
0.016761389
0.13719325
0.13524609
0.13154164
0.12679142
0.12127972
0.1149233
0.10740968
0.098335017
0.087287478
0.073891007
0.057863385
0.039212932
0.016759944
0.13691617
0.13496822
0.13126499
0.12652213
0.121027
0.11469737
0.10721958
0.098186824
0.087183126
0.073827563
0.057832999
0.039203858
0.016758562
0.13664284
0.13469469
0.130994
0.12626031
0.12078356
0.11448197
0.10704031
0.098048724
0.08708716
0.073770146
0.057806088
0.039196078
0.016757246
0.13637442
0.1344266
0.13072964
0.12600672
0.12054989
0.11427732
0.10687189
0.097920558
0.086999341
0.073718514
0.057782472
0.039189509
0.016755995
0.1361119
0.13416491
0.13047274
0.12576199
0.12032638
0.11408357
0.10671425
0.097802125
0.086919402
0.073672412
0.05776197
0.039184071
0.016754813
0.13585618
0.13391045
0.13022402
0.12552664
0.12011333
0.11390081
0.10656729
0.097693188
0.086847057
0.073631579
0.0577444
0.039179684
0.016753698
0.13560803
0.13366396
0.1299841
0.12530113
0.11991098
0.11372904
0.10643085
0.097593481
0.086782004
0.073595747
0.057729581
0.039176271
0.01675265
0.13536813
0.13342606
0.12975347
0.12508579
0.11971945
0.11356822
0.10630471
0.097502707
0.086723929
0.073564647
0.057717333
0.039173757
0.01675167
0.13513702
0.13319726
0.12953257
0.12488088
0.11953884
0.11341823
0.10618865
0.09742055
0.086672506
0.073538007
0.057707481
0.039172068
0.016750755
0.13491519
0.132978
0.12932172
0.12468659
0.11936914
0.11327893
0.10608238
0.097346673
0.086627402
0.073515556
0.057699851
0.039171136
0.016749906
0.134703
0.1327686
0.12912117
0.12450302
0.1192103
0.11315011
0.10598559
0.097280721
0.08658828
0.073497024
0.057694273
0.039170891
0.016749121
0.13450074
0.13256932
0.12893107
0.1243302
0.11906221
0.11303153
0.10589796
0.097222328
0.086554798
0.073482144
0.057690583
0.03917127
0.016748398
0.1343086
0.13238032
0.12875153
0.12416812
0.11892471
0.11292291
0.10581912
0.097171116
0.086526614
0.073470653
0.057688621
0.03917221
0.016747736
0.13412671
0.13220171
0.12858257
0.12401667
0.1187976
0.11282394
0.1057487
0.097126701
0.086503385
0.073462292
0.05768823
0.039173651
0.016747132
0.13395514
0.13203351
0.12842413
0.12387574
0.11868061
0.11273427
0.10568631
0.097088693
0.086484772
0.073456808
0.057689261
0.039175536
0.016746584
0.13379386
0.13187568
0.12827614
0.12374511
0.11857347
0.11265355
0.10563155
0.097056701
0.08647044
0.073453955
0.057691569
0.039177811
0.01674609
0.13364281
0.13172814
0.12813843
0.12362458
0.11847586
0.11258138
0.10558401
0.097030333
0.086460059
0.073453494
0.057695015
0.039180423
0.016745648
0.13350187
0.13159073
0.12801082
0.12351385
0.11838743
0.11251737
0.10554327
0.097009203
0.086453306
0.073455193
0.057699467
0.039183324
0.016745255
0.13337088
0.13146328
0.12789307
0.12341265
0.11830782
0.11246112
0.10550892
0.096992928
0.086449871
0.073458833
0.0577048
0.039186467
0.016744909
0.13324964
0.13134556
0.12778492
0.12332064
0.11823665
0.11241221
0.10548054
0.096981138
0.086449452
0.073464203
0.057710897
0.03918981
0.016744607
0.1331379
0.13123733
0.12768607
0.12323748
0.11817353
0.11237022
0.10545774
0.096973471
0.086451762
0.073471105
0.057717647
0.039193314
0.016744346
0.13303542
0.1311383
0.12759623
0.12316282
0.11811807
0.11233474
0.10544011
0.096969582
0.086456529
0.073479353
0.057724949
0.039196941
0.016744123
0.1329419
0.13104819
0.12751505
0.1230963
0.11806986
0.11230538
0.10542728
0.096969139
0.086463496
0.073488777
0.057732711
0.039200662
0.016743937
0.13285706
0.13096668
0.12744221
0.12303753
0.11802852
0.11228172
0.10541887
0.096971826
0.086472421
0.073499213
0.057740848
0.039204446
0.016743786
0.13278058
0.13089344
0.12737734
0.12298614
0.11799365
0.11226339
0.10541453
0.096977345
0.086483078
0.073510517
0.057749284
0.039208269
0.016743665
0.13271213
0.13082814
0.12732011
0.12294176
0.11796486
0.11225
0.10541391
0.096985409
0.086495255
0.073522549
0.05775795
0.03921211
0.016743575
0.13265138
0.13077043
0.12727013
0.122904
0.11794176
0.11224119
0.10541669
0.096995749
0.08650875
0.073535184
0.057766781
0.039215948
0.016743512
0.13259798
0.13071996
0.12722705
0.12287248
0.11792398
0.11223659
0.10542254
0.097008103
0.086523374
0.073548301
0.057775717
0.039219766
0.016743474
0.13255156
0.13067636
0.12719048
0.12284682
0.11791112
0.11223585
0.10543115
0.097022221
0.086538945
0.073561786
0.057784703
0.039223546
0.01674346
0.13251176
0.13063925
0.12716003
0.12282662
0.11790282
0.11223861
0.10544223
0.097037862
0.086555289
0.073575531
0.057793684
0.039227272
0.016743468
0.1324782
0.13060825
0.12713532
0.12281149
0.11789869
0.11224454
0.10545547
0.097054792
0.086572239
0.073589431
0.057802609
0.039230927
0.016743496
0.13245047
0.13058295
0.12711595
0.12280105
0.11789837
0.11225329
0.10547059
0.097072788
0.086589635
0.073603388
0.057811429
0.039234498
0.016743541
0.13242819
0.13056297
0.12710152
0.1227949
0.11790148
0.11226455
0.10548731
0.097091633
0.086607326
0.073617307
0.057820097
0.039237966
0.016743602
0.13241097
0.13054791
0.12709164
0.12279266
0.11790767
0.11227798
0.10550538
0.097111127
0.086625168
0.073631103
0.057828571
0.039241318
0.016743676
0.1323984
0.13053738
0.12708592
0.12279396
0.11791661
0.1122933
0.10552454
0.09713108
0.086643034
0.073644698
0.057836812
0.039244542
0.016743762
0.13239012
0.130531
0.12708399
0.12279845
0.11792796
0.11231023
0.10554457
0.097151323
0.086660807
0.073658024
0.057844791
0.039247629
0.016743858
0.13238575
0.13052841
0.1270855
0.12280579
0.11794142
0.1123285
0.10556527
0.097171702
0.086678387
0.073671024
0.05785248
0.039250561
0.016743962
0.13238496
0.13052926
0.1270901
0.12281567
0.11795671
0.11234788
0.10558644
0.097192085
0.086695687
0.073683652
0.057859856
0.039253315
0.016744073
0.13238742
0.13053323
0.12709749
0.12282779
0.11797358
0.11236815
0.10560792
0.097212356
0.086712636
0.073695866
0.057866893
0.039255904
0.016744188
0.13239283
0.13054002
0.12710738
0.12284189
0.11799179
0.11238913
0.10562957
0.097232418
0.086729178
0.07370764
0.057873578
0.039258337
0.016744307
0.13240092
0.13054936
0.1271195
0.12285772
0.11801113
0.11241065
0.10565127
0.09725219
0.086745261
0.073718938
0.057879932
0.039260619
0.016744429
0.13241142
0.130561
0.12713361
0.12287506
0.11803141
0.11243256
0.10567291
0.097271599
0.086760848
0.073729755
0.057885953
0.039262755
0.016744553
0.1324241
0.13057468
0.12714948
0.1228937
0.11805246
0.11245471
0.10569438
0.097290581
0.086775887
0.073740096
0.057891647
0.039264752
0.016744678
0.13243872
0.13059019
0.12716688
0.12291345
0.1180741
0.11247699
0.1057156
0.09730907
0.086790372
0.073749952
0.057897014
0.039266613
0.016744804
0.13245506
0.13060731
0.12718563
0.12293413
0.1180962
0.11249927
0.10573648
0.097327015
0.086804285
0.07375932
0.057902062
0.039268346
0.016744931
0.13247291
0.13062583
0.1272055
0.12295554
0.11811859
0.11252143
0.10575692
0.097344387
0.086817608
0.073768197
0.057906795
0.039269955
0.016745057
0.13249205
0.13064552
0.12722631
0.12297753
0.11814113
0.11254336
0.10577688
0.097361147
0.086830326
0.073776584
0.05791122
0.039271444
0.016745183
0.13251226
0.1306662
0.12724786
0.1229999
0.11816367
0.11256496
0.10579628
0.097377259
0.086842423
0.073784479
0.05791534
0.039272817
0.016745308
0.13253333
0.13068764
0.12726996
0.1230225
0.11818609
0.11258614
0.10581508
0.097392693
0.08685389
0.073791884
0.057919163
0.039274077
0.016745431
0.13255505
0.13070963
0.12729241
0.12304516
0.11820826
0.11260682
0.10583321
0.097407418
0.086864715
0.073798798
0.057922691
0.039275228
0.016745552
0.1325772
0.13073199
0.12731503
0.12306773
0.11823007
0.11262692
0.10585063
0.097421412
0.086874892
0.073805227
0.057925931
0.039276273
0.016745671
0.13259957
0.1307545
0.12733766
0.12309008
0.11825141
0.11264635
0.1058673
0.097434653
0.086884417
0.073811172
0.057928887
0.039277213
0.016745786
0.132622
0.13077701
0.12736013
0.12311208
0.1182722
0.11266507
0.10588317
0.097447127
0.086893288
0.073816642
0.057931567
0.039278052
0.016745897
0.13264429
0.13079934
0.12738232
0.12313361
0.11829234
0.11268302
0.10589822
0.097458824
0.08690151
0.073821643
0.057933978
0.039278793
0.016746004
0.13266632
0.13082136
0.12740408
0.12315457
0.11831176
0.11270015
0.10591243
0.097469743
0.086909089
0.073826186
0.057936128
0.039279439
0.016746107
0.13268793
0.13084294
0.12742531
0.12317488
0.11833041
0.11271642
0.10592578
0.097479886
0.086916039
0.073830286
0.057938028
0.039279993
0.016746205
0.13270903
0.13086397
0.12744593
0.12319446
0.11834823
0.11273182
0.10593828
0.097489263
0.086922375
0.073833959
0.057939688
0.039280461
0.016746298
0.13272953
0.13088437
0.12746585
0.12321326
0.1183652
0.11274633
0.10594992
0.097497893
0.086928118
0.073837225
0.057941124
0.039280848
0.016746386
0.13274934
0.13090407
0.12748501
0.12323123
0.11838128
0.11275995
0.10596073
0.097505796
0.086933294
0.073840106
0.057942348
0.03928116
0.016746468
0.13276843
0.13092302
0.12750338
0.12324836
0.11839648
0.11277269
0.10597072
0.097512999
0.08693793
0.073842624
0.057943378
0.039281403
0.016746546
0.13278674
0.13094118
0.12752092
0.12326462
0.11841079
0.11278456
0.10597991
0.097519529
0.086942053
0.073844802
0.057944226
0.039281585
0.016746618
0.13280425
0.13095852
0.12753761
0.12327999
0.11842421
0.11279558
0.10598833
0.097525415
0.086945691
0.073846663
0.057944909
0.039281711
0.016746686
0.13282093
0.13097502
0.12755344
0.12329448
0.11843674
0.11280575
0.105996
0.097530684
0.08694887
0.073848227
0.057945439
0.039281788
0.016746749
0.13283677
0.13099066
0.1275684
0.12330809
0.11844841
0.11281511
0.10600295
0.097535362
0.086951611
0.073849512
0.057945827
0.03928182
0.016746808
0.13285177
0.13100545
0.12758247
0.12332081
0.11845921
0.11282366
0.10600919
0.097539472
0.086953937
0.073850532
0.057946082
0.03928181
0.016746862
0.13286592
0.13101938
0.12759568
0.12333266
0.11846916
0.11283143
0.10601476
0.097543037
0.086955865
0.0738513
0.05794621
0.039281761
0.016746911
0.13287923
0.13103245
0.12760801
0.12334364
0.11847828
0.11283844
0.10601967
0.097546078
0.086957414
0.07385183
0.057946217
0.039281672
0.016746957
0.1328917
0.13104467
0.12761949
0.12335378
0.1184866
0.11284472
0.10602396
0.09754862
0.086958604
0.073852134
0.057946111
0.039281547
0.016746998
0.13290336
0.13105607
0.12763014
0.12336309
0.11849414
0.1128503
0.10602765
0.097550693
0.086959457
0.073852228
0.0579459
0.039281386
0.016747034
0.13291424
0.13106668
0.12763999
0.12337163
0.11850094
0.11285521
0.10603078
0.097552329
0.086960001
0.073852131
0.057945593
0.039281192
0.016747066
0.13292438
0.13107654
0.12764908
0.12337942
0.11850705
0.11285951
0.1060334
0.097553569
0.086960267
0.073851864
0.057945203
0.03928097
0.016747094
0.13293381
0.13108568
0.12765746
0.12338652
0.11851251
0.11286325
0.10603555
0.097554454
0.08696029
0.073851454
0.057944744
0.039280724
0.016747118
0.13294259
0.13109416
0.12766517
0.12339297
0.11851739
0.11286647
0.10603729
0.097555031
0.086960107
0.073850926
0.057944232
0.039280463
0.016747139
0.13295077
0.13110202
0.12767228
0.12339885
0.11852173
0.11286924
0.10603867
0.097555346
0.086959755
0.073850307
0.057943685
0.039280192
0.016747156
0.13295838
0.13110932
0.12767881
0.12340418
0.11852559
0.11287161
0.10603974
0.097555441
0.086959268
0.073849622
0.057943116
0.03927992
0.016747171
0.13296547
0.13111609
0.12768483
0.12340903
0.11852902
0.11287362
0.10604053
0.097555352
0.086958675
0.07384889
0.057942538
0.03927965
0.016747184
0.13297205
0.13112236
0.12769036
0.12341342
0.11853205
0.11287531
0.10604109
0.097555108
0.086957999
0.073848128
0.057941958
0.039279388
0.016747195
0.13297815
0.13112814
0.12769542
0.12341738
0.11853472
0.1128767
0.10604144
0.09755473
0.086957253
0.073847344
0.057941383
0.039279136
0.016747205
0.13298375
0.13113345
0.12770002
0.12342093
0.11853702
0.11287782
0.10604159
0.097554231
0.086956449
0.073846543
0.057940814
0.039278893
0.016747213
0.13298885
0.13113826
0.12770416
0.12342406
0.11853899
0.11287867
0.10604155
0.097553617
0.086955588
0.073845728
0.057940252
0.03927866
0.01674722
0.13299344
0.13114257
0.12770783
0.12342677
0.1185406
0.11287925
0.10604132
0.097552887
0.086954669
0.073844894
0.057939692
0.039278435
0.016747226
0.13299749
0.13114637
0.12771103
0.12342906
0.11854187
0.11287957
0.10604091
0.097552039
0.086953689
0.073844038
0.057939131
0.039278215
0.01674723
0.13300099
0.13114964
0.12771373
0.12343092
0.11854277
0.11287961
0.1060403
0.097551069
0.086952642
0.073843154
0.057938565
0.039277999
0.016747233
0.13300393
0.13115236
0.12771593
0.12343235
0.11854333
0.11287938
0.1060395
0.097549974
0.086951525
0.073842237
0.057937988
0.039277782
0.016747235
0.13300631
0.13115455
0.12771764
0.12343334
0.11854353
0.11287888
0.10603851
0.097548754
0.086950335
0.073841287
0.057937401
0.039277564
0.016747234
0.13300815
0.13115622
0.12771887
0.12343393
0.1185434
0.11287812
0.10603733
0.097547413
0.086949073
0.073840299
0.057936799
0.039277341
0.016747232
0.13300948
0.1311574
0.12771965
0.12343412
0.11854295
0.11287712
0.10603599
0.097545964
0.086947748
0.07383928
0.057936182
0.039277112
0.016747228
0.13301035
0.13115814
0.12772003
0.12343397
0.11854223
0.11287593
0.10603451
0.097544427
0.086946373
0.073838235
0.057935551
0.039276872
0.016747222
0.13301084
0.1311585
0.12772007
0.12343354
0.11854129
0.11287457
0.10603293
0.097542835
0.086944974
0.073837182
0.057934916
0.039276622
0.016747214
0.133011
0.13115855
0.12771983
0.12343288
0.11854018
0.11287312
0.1060313
0.097541233
0.086943586
0.073836145
0.05793429
0.039276366
0.016747204
0.13301092
0.13115836
0.12771939
0.12343207
0.11853899
0.11287163
0.10602968
0.097539674
0.086942254
0.073835159
0.057933693
0.039276113
0.016747193
0.13301065
0.131158
0.12771881
0.12343117
0.11853776
0.11287017
0.10602813
0.097538212
0.086941026
0.073834264
0.057933157
0.039275885
0.016747181
0.13301024
0.13115752
0.12771814
0.12343024
0.11853656
0.11286878
0.10602671
0.097536894
0.086939945
0.073833496
0.057932711
0.039275699
0.01674717
0.13300971
0.13115693
0.12771741
0.12342929
0.1185354
0.1128675
0.10602542
0.097535745
0.086939038