/*--------------------------------*- C++ -*----------------------------------*\
| =========                 |                                                 |
| \\      /  F ield         | OpenFOAM: The Open Source CFD Toolbox           |
|  \\    /   O peration     | Version:  2506                                  |
|   \\  /    A nd           | Website:  www.openfoam.com                      |
|    \\/     M anipulation  |                                                 |
\*---------------------------------------------------------------------------*/
FoamFile
{
    version     2.0;
    format      ascii;
    arch        "LSB;label=32;scalar=64";
    class       volScalarField;
    location    "26000/water";
    object      epsilon;
}
// * * * * * * * * * * * * * * * * * * * * * * * * * * * * * * * * * * * * * //

dimensions      [0 2 -3 0 0 0 0];

internalField   nonuniform List<scalar> 
2600
(
8.8079773e-05
8.8079245e-05
8.8079271e-05
8.807949e-05
8.8079744e-05
8.8080245e-05
8.8082926e-05
8.8104349e-05
8.8272771e-05
8.9512908e-05
9.8428186e-05
0.00017145296
0.0010138716
6.7789348e-05
6.7791881e-05
6.7793339e-05
6.7794963e-05
6.7796901e-05
6.7799886e-05
6.7810178e-05
6.7875511e-05
6.8312468e-05
7.1039872e-05
8.7857083e-05
0.00021159534
0.0014669324
5.3500886e-05
5.3503148e-05
5.3504846e-05
5.3506859e-05
5.3509287e-05
5.3513643e-05
5.3532992e-05
5.3656306e-05
5.4399641e-05
5.8506995e-05
8.1500797e-05
0.00023956052
0.0017068244
4.3127504e-05
4.3128883e-05
4.3130503e-05
4.3132598e-05
4.3135149e-05
4.3140834e-05
4.3171684e-05
4.3362646e-05
4.4413342e-05
4.9710824e-05
7.7552644e-05
0.00025818579
0.0017816909
3.539909e-05
3.5400132e-05
3.5401605e-05
3.5403513e-05
3.5405834e-05
3.5412916e-05
3.5457613e-05
3.5722605e-05
3.7073304e-05
4.3450503e-05
7.5629286e-05
0.00027290618
0.0017622817
2.9510599e-05
2.9511446e-05
2.95127e-05
2.9514227e-05
2.9516143e-05
2.9525119e-05
2.9586798e-05
2.9933924e-05
3.159515e-05
3.9095388e-05
7.5939385e-05
0.00028837858
0.0017002497
2.4935213e-05
2.4935877e-05
2.4936847e-05
2.4937875e-05
2.4939416e-05
2.4951342e-05
2.503458e-05
2.5477125e-05
2.7489448e-05
3.6318413e-05
7.8818158e-05
0.0003073199
0.0016256765
2.1318423e-05
2.1318913e-05
2.1319549e-05
2.132003e-05
2.1321464e-05
2.1338095e-05
2.144948e-05
2.2008273e-05
2.4447975e-05
3.4968795e-05
8.4593389e-05
0.00033066897
0.0015541994
1.8415642e-05
1.8415958e-05
1.8416233e-05
1.8416208e-05
1.8418091e-05
1.8442025e-05
1.8590687e-05
1.9295945e-05
2.2279378e-05
3.5010665e-05
9.3512815e-05
0.00035786641
0.0014930959
1.6054297e-05
1.6054439e-05
1.6054351e-05
1.6053968e-05
1.6057197e-05
1.6092028e-05
1.6290179e-05
1.7183376e-05
2.0872546e-05
3.6486908e-05
0.00010564207
0.00038720677
0.0014449141
1.411016e-05
1.4110129e-05
1.4109712e-05
1.4109249e-05
1.4115119e-05
1.4165612e-05
1.4429188e-05
1.5565379e-05
2.0175367e-05
3.9486471e-05
0.0001207425
0.00041640752
0.0014094648
1.249217e-05
1.2491978e-05
1.249131e-05
1.24912e-05
1.2501471e-05
1.2573786e-05
1.2923263e-05
1.4374121e-05
2.0181311e-05
4.4103575e-05
0.00013819401
0.00044331751
0.0013850187
1.1132483e-05
1.1132152e-05
1.1131368e-05
1.1132227e-05
1.1149209e-05
1.1251189e-05
1.1712642e-05
1.3570321e-05
2.0918928e-05
5.0386673e-05
0.00015703479
0.00046647967
0.0013691707
9.9797899e-06
9.9793621e-06
9.9786681e-06
9.9813266e-06
1.0007987e-05
1.0149541e-05
1.0756002e-05
1.3137755e-05
2.2440689e-05
5.8285037e-05
0.00017613324
0.00048532286
0.0013594869
8.994766e-06
8.994305e-06
8.9939894e-06
8.9995396e-06
9.0396464e-06
9.2332357e-06
1.0026406e-05
1.3079617e-05
2.4808571e-05
6.7609617e-05
0.00019442665
0.00050000485
0.0013539038
8.1468971e-06
8.1464947e-06
8.1469469e-06
8.1567947e-06
8.2150975e-06
8.4763588e-06
9.5087284e-06
1.3415553e-05
2.807526e-05
7.802684e-05
0.0002111215
0.00051110137
0.0013508788
7.4122408e-06
7.412023e-06
7.4137548e-06
7.4296903e-06
7.5121568e-06
7.8606834e-06
9.1980663e-06
1.4178291e-05
3.2262331e-05
8.9094589e-05
0.00022578147
0.00051932559
0.0013493668
6.7718206e-06
6.7719549e-06
6.7756276e-06
6.7999151e-06
6.9140283e-06
7.3743439e-06
9.0987625e-06
1.5408888e-05
3.7339829e-05
0.00010033156
0.0002382985
0.00052535584
0.0013487149
6.2104575e-06
6.2111621e-06
6.2176208e-06
6.2531142e-06
6.4082476e-06
7.0110033e-06
9.2236697e-06
1.7149875e-05
4.3213606e-05
0.00011129559
0.0002487951
0.00052976263
0.0013485457
5.7159095e-06
5.7174657e-06
5.7277834e-06
5.7780724e-06
5.9859581e-06
6.7693776e-06
9.5932705e-06
1.9436232e-05
4.9726067e-05
0.00012164394
0.00025751549
0.00053299526
0.0013486594
5.2782322e-06
5.2809984e-06
5.2965329e-06
5.3661281e-06
5.6414368e-06
6.6530082e-06
1.0234238e-05
2.228513e-05
5.6672015e-05
0.00013115952
0.00026474158
0.00053539448
0.001348962
4.889296e-06
4.893728e-06
4.9161934e-06
5.0107595e-06
5.3718124e-06
6.6701644e-06
1.1177041e-05
2.5686552e-05
6.3825675e-05
0.00013974421
0.00027074337
0.00053721255
0.0013494179
4.5424222e-06
4.549097e-06
4.5806559e-06
4.707302e-06
5.1769356e-06
6.8337315e-06
1.2452335e-05
2.9597475e-05
7.0970787e-05
0.00014739147
0.00027575679
0.00053863278
0.0013500205
4.2321037e-06
4.2417515e-06
4.2851315e-06
4.4527719e-06
5.0593678e-06
7.1609027e-06
1.4086151e-05
3.3941829e-05
7.7925112e-05
0.00015415333
0.00027997823
0.00053978641
0.0013507744
3.9537926e-06
3.9673375e-06
4.0259782e-06
4.2457763e-06
5.0244498e-06
7.6724685e-06
1.6094424e-05
3.8616919e-05
8.4553952e-05
0.00016011197
0.00028356675
0.00054076618
0.0013516866
3.7037376e-06
3.7223496e-06
3.8005873e-06
4.0864974e-06
5.0804009e-06
8.3914977e-06
1.8477844e-05
4.3504912e-05
9.0772063e-05
0.00016536003
0.00028664928
0.00054163687
0.0013527623
3.4788613e-06
3.504022e-06
3.6073203e-06
3.9767408e-06
5.2383695e-06
9.3412709e-06
2.1218352e-05
4.8486365e-05
9.6537097e-05
0.00016998887
0.0002893262
0.00054244336
0.0013540034
3.2766694e-06
3.3102566e-06
3.4454921e-06
3.9200366e-06
5.512335e-06
1.0542479e-05
2.4278371e-05
5.3452377e-05
0.00010183911
0.00017408281
0.00029167657
0.00054321637
0.0013554084
3.0951868e-06
3.1395803e-06
3.315394e-06
3.9217755e-06
5.9187332e-06
1.2009945e-05
2.7603266e-05
5.8312862e-05
0.0001066899
0.00017771679
0.00029376256
0.00054397674
0.0013569729
2.9329181e-06
2.991133e-06
3.2183574e-06
3.9893517e-06
6.47568e-06
1.3749402e-05
3.1126579e-05
6.3000083e-05
0.00011111417
0.0001809559
0.00029563311
0.00054473834
0.0013586904
2.7888292e-06
2.8646819e-06
3.1568532e-06
4.132263e-06
7.2016965e-06
1.5755029e-05
3.4776806e-05
6.7468121e-05
0.00011514328
0.00018385585
0.00029732664
0.00054550989
0.0013605531
2.6623516e-06
2.7606641e-06
3.1346228e-06
4.3621019e-06
8.1139272e-06
1.8008403e-05
3.8484154e-05
7.1689802e-05
0.00011881108
0.00018646428
0.00029887504
0.000546294
0.0013625491
2.5534087e-06
2.680258e-06
3.1568304e-06
4.6923495e-06
9.2259796e-06
2.0479254e-05
4.2185899e-05
7.5652554e-05
0.00012215122
0.00018882083
0.00030030031
0.00054708344
0.001364665
2.4624667e-06
2.6254826e-06
3.2302146e-06
5.1378782e-06
1.0545684e-05
2.3127918e-05
4.5829653e-05
7.935444e-05
0.00012519597
0.00019095974
0.00030162123
0.00054787014
0.0013668874
2.3906118e-06
2.5993266e-06
3.3632045e-06
5.7140891e-06
1.2073206e-05
2.5908985e-05
4.9374528e-05
8.2800769e-05
0.00012797522
0.00019290921
0.0003028502
0.00054865291
0.0013692048
2.3396576e-06
2.6059009e-06
3.5659451e-06
6.4356567e-06
1.3799941e-05
2.877532e-05
5.279067e-05
8.6001446e-05
0.00013051586
0.0001946916
0.00030399378
0.00054944276
0.0013716092
2.3122834e-06
2.6506068e-06
3.8501619e-06
7.3149534e-06
1.5708514e-05
3.1681694e-05
5.6057929e-05
8.8969444e-05
0.00013284316
0.00019632774
0.00030505438
0.0005502502
0.0013740956
2.312204e-06
2.7402971e-06
4.2287857e-06
8.3603385e-06
1.7773922e-05
3.4587409e-05
5.9163896e-05
9.1718487e-05
0.000134977
0.00019782951
0.00030604752
0.00055107623
0.0013766578
2.3443665e-06
2.8833944e-06
4.7152662e-06
9.5746049e-06
1.996561e-05
3.7457895e-05
6.2102576e-05
9.4263947e-05
0.00013693775
0.00019920349
0.00030698675
0.00055192213
0.0013792895
2.4151613e-06
3.0899101e-06
5.3225446e-06
1.0953905e-05
2.2249994e-05
4.026506e-05
6.4872078e-05
9.6618923e-05
0.00013873802
0.00020046565
0.00030788005
0.00055278753
0.0013819844
2.5326206e-06
3.3712893e-06
6.0617311e-06
1.2487422e-05
2.4593018e-05
4.2987257e-05
6.7474461e-05
9.8797811e-05
0.00014038632
0.00020163082
0.0003087338
0.00055367118
0.0013847362
2.7065546e-06
3.7399972e-06
6.9406292e-06
1.4157864e-05
2.6962172e-05
4.5608169e-05
6.9912764e-05
0.00010081055
0.00014189657
0.00020271013
0.0003095528
0.00055457136
0.0013875384
2.9485503e-06
4.2087764e-06
7.9623507e-06
1.5942735e-05
2.9328091e-05
4.8116704e-05
7.2192973e-05
0.0001026631
0.00014328329
0.00020371267
0.00031034059
0.00055548596
0.0013903847
3.2717208e-06
4.7895538e-06
9.1242826e-06
1.7815987e-05
3.1665001e-05
5.0504534e-05
7.4318481e-05
0.00010436656
0.0001445581
0.0002046458
0.00031109972
0.00055641262
0.0013932686
3.6900859e-06
5.4920733e-06
1.0417684e-05
1.9750013e-05
3.39517e-05
5.2768185e-05
7.6289671e-05
0.00010593299
0.00014573089
0.00020551556
0.00031183199
0.00055734882
0.0013961839
4.217485e-06
6.3224284e-06
1.1827952e-05
2.1717141e-05
3.6170247e-05
5.4901161e-05
7.811376e-05
0.00010737249
0.00014680994
0.00020632675
0.00031253853
0.00055829186
0.0013991244
4.8660263e-06
7.281775e-06
1.3335594e-05
2.3691123e-05
3.8306689e-05
5.6898169e-05
7.9798306e-05
0.0001086939
0.00014780214
0.00020708322
0.00031321996
0.00055923895
0.0014020837
5.6442494e-06
8.3655567e-06
1.4917866e-05
2.564878e-05
4.0344257e-05
5.8760207e-05
8.1350099e-05
0.00010990478
0.00014871322
0.00020778792
0.00031387636
0.00056018715
0.0014050557
6.5553589e-06
9.5634596e-06
1.6550685e-05
2.756532e-05
4.227254e-05
6.0488807e-05
8.2775226e-05
0.00011101156
0.00014954782
0.00020844308
0.00031450744
0.0005611334
0.0014080339
7.5961525e-06
1.086044e-05
1.8207367e-05
2.94191e-05
4.4084527e-05
6.2085811e-05
8.4079029e-05
0.00011201959
0.00015030968
0.0002090502
0.00031511246
0.00056207448
0.001411012
8.7563135e-06
1.2235549e-05
1.986123e-05
3.1193214e-05
4.5774961e-05
6.3553176e-05
8.5266106e-05
0.00011293327
0.00015100164
0.00020961021
0.00031569034
0.00056300703
0.0014139832
1.0017519e-05
1.3664332e-05
2.1488446e-05
3.2873855e-05
4.734005e-05
6.4892862e-05
8.634034e-05
0.00011375611
0.00015162579
0.00021012345
0.00031623962
0.00056392745
0.0014169405
1.1355898e-05
1.5121208e-05
2.3068169e-05
3.4450175e-05
4.8777285e-05
6.6106807e-05
8.7304978e-05
0.00011449084
0.00015218354
0.00021058972
0.00031675848
0.00056483194
0.0014198765
1.2744262e-05
1.6581078e-05
2.45829e-05
3.5914121e-05
5.0085352e-05
6.7196967e-05
8.8162734e-05
0.00011513952
0.00015267568
0.00021100841
0.00031724479
0.00056571646
0.0014227832
1.4154479e-05
1.8020635e-05
2.6018603e-05
3.7260264e-05
5.1264091e-05
6.8165412e-05
8.891593e-05
0.00011570369
0.00015310253
0.00021137848
0.00031769615
0.00056657672
0.0014256522
1.5559579e-05
1.9419301e-05
2.7364606e-05
3.8485598e-05
5.231449e-05
6.9014451e-05
8.9566667e-05
0.00011618451
0.00015346401
0.0002116986
0.0003181099
0.00056740825
0.0014284742
1.6935339e-05
2.0759787e-05
2.8613379e-05
3.9589305e-05
5.3238672e-05
6.9746761e-05
9.0116993e-05
0.00011658289
0.00015375984
0.00021196726
0.00031848327
0.0005682064
0.0014312395
1.8261271e-05
2.2028327e-05
2.9760209e-05
4.0572481e-05
5.4039846e-05
7.0365502e-05
9.0569086e-05
0.00011689976
0.00015398963
0.00021218287
0.00031881342
0.0005689665
0.0014339376
1.9521051e-05
2.3214639e-05
3.0802838e-05
4.1437846e-05
5.4722233e-05
7.0874399e-05
9.0925401e-05
0.00011713615
0.00015415309
0.00021234393
0.00031909765
0.00056968392
0.0014365579
2.070252e-05
2.4311692e-05
3.174109e-05
4.218944e-05
5.5290943e-05
7.127778e-05
9.11888e-05
0.00011729338
0.00015425017
0.00021244919
0.00031933347
0.00057035424
0.0014390894
2.1797374e-05
2.5315357e-05
3.2576493e-05
4.2832336e-05
5.5751833e-05
7.1580565e-05
9.1362634e-05
0.0001173732
0.00015428121
0.00021249776
0.00031951878
0.00057097343
0.001441521
2.2800697e-05
2.6223987e-05
3.3311945e-05
4.3372365e-05
5.6111341e-05
7.1788224e-05
9.1450783e-05
0.00011737787
0.00015424705
0.00021248928
0.00031965204
0.00057153797
0.0014438422
2.3710406e-05
2.703798e-05
3.3951391e-05
4.3815876e-05
5.6376318e-05
7.1906694e-05
9.1457659e-05
0.00011731023
0.00015414912
0.00021242401
0.00031973234
0.00057204502
0.001446043
2.4526703e-05
2.7759362e-05
3.4499556e-05
4.416953e-05
5.655387e-05
7.1942283e-05
9.1388169e-05
0.00011717368
0.00015398951
0.00021230291
0.00031975953
0.00057249255
0.0014481143
2.5251562e-05
2.8391404e-05
3.4961707e-05
4.4440129e-05
5.6651211e-05
7.1901557e-05
9.1247652e-05
0.00011697221
0.00015377098
0.00021212767
0.00031973424
0.0005728794
0.0014500483
2.5888276e-05
2.8938285e-05
3.5343454e-05
4.4634484e-05
5.6675542e-05
7.179123e-05
9.1041797e-05
0.00011671033
0.00015349693
0.00021190073
0.00031965795
0.00057320533
0.0014518387
2.644108e-05
2.9404814e-05
3.5650589e-05
4.47593e-05
5.6633945e-05
7.1618063e-05
9.0776547e-05
0.00011639298
0.00015317134
0.00021162524
0.0003195329
0.00057347106
0.0014534809
2.6914831e-05
2.9796193e-05
3.5888954e-05
4.4821104e-05
5.6533301e-05
7.1388761e-05
9.0458006e-05
0.00011602547
0.00015279872
0.00021130495
0.00031936207
0.00057367815
0.0014549719
2.7314767e-05
3.0117833e-05
3.6064342e-05
4.482618e-05
5.6380232e-05
7.1109899e-05
9.0092336e-05
0.00011561334
0.00015238398
0.00021094417
0.00031914909
0.000573829
0.0014563105
2.7646308e-05
3.0375207e-05
3.6182413e-05
4.4780534e-05
5.6181056e-05
7.0787852e-05
8.9685673e-05
0.00011516232
0.00015193233
0.00021054762
0.00031889809
0.00057392671
0.0014574974
2.7914909e-05
3.0573743e-05
3.6248641e-05
4.4689861e-05
5.5941751e-05
7.0428739e-05
8.9244044e-05
0.00011467815
0.00015144919
0.00021012033
0.00031861361
0.00057397494
0.0014585349
2.8125954e-05
3.0718738e-05
3.6268272e-05
4.4559534e-05
5.5667945e-05
7.0038379e-05
8.8773296e-05
0.00011416656
0.00015094005
0.0002096675
0.00031830044
0.0005739778
0.0014594267
2.8284674e-05
3.0815301e-05
3.6246292e-05
4.4394594e-05
5.5364898e-05
6.9622265e-05
8.8279041e-05
0.00011363314
0.00015041038
0.00020919438
0.0003179635
0.0005739397
0.001460178
2.8396093e-05
3.0868313e-05
3.6187414e-05
4.4199747e-05
5.5037505e-05
6.9185541e-05
8.7766603e-05
0.00011308327
0.00014986552
0.00020870617
0.00031760771
0.00057386522
0.0014607951
2.8464994e-05
3.08824e-05
3.6096062e-05
4.397937e-05
5.4690295e-05
6.8732988e-05
8.7240987e-05
0.0001125221
0.00014931061
0.00020820791
0.0003172379
0.00057375899
0.0014612851
2.8495891e-05
3.0861919e-05
3.5976376e-05
4.3737516e-05
5.4327441e-05
6.826902e-05
8.6706847e-05
0.00011195444
0.00014875054
0.0002077044
0.00031685869
0.00057362555
0.0014616561
2.8493026e-05
3.0810946e-05
3.5832206e-05
4.3477926e-05
5.3952768e-05
6.7797682e-05
8.6168478e-05
0.00011138476
0.00014818984
0.00020720014
0.00031647442
0.00057346932
0.0014619164
2.8460355e-05
3.0733284e-05
3.5667121e-05
4.3204035e-05
5.3569763e-05
6.7322659e-05
8.5629796e-05
0.00011081717
0.00014763271
0.00020669926
0.00031608908
0.00057329448
0.0014620748
2.840156e-05
3.0632459e-05
3.5484416e-05
4.2918989e-05
5.3181592e-05
6.6847279e-05
8.5094345e-05
0.00011025538
0.00014708292
0.0002062055
0.00031570633
0.00057310493
0.0014621402
2.8320046e-05
3.051173e-05
3.5287121e-05
4.2625653e-05
5.2791113e-05
6.6374531e-05
8.4565298e-05
0.00010970272
0.00014654387
0.00020572219
0.00031532938
0.00057290425
0.0014621216
2.8218955e-05
3.0374097e-05
3.5078012e-05
4.2326631e-05
5.2400891e-05
6.5907071e-05
8.4045462e-05
0.00010916212
0.00014601852
0.00020525224
0.00031496105
0.00057269569
0.0014620275
2.8101175e-05
3.0222314e-05
3.4859623e-05
4.2024275e-05
5.2013217e-05
6.5447247e-05
8.3537299e-05
0.00010863614
0.00014550943
0.00020479811
0.00031460377
0.00057248217
0.0014618666
2.7969353e-05
3.0058898e-05
3.4634259e-05
4.1720699e-05
5.1630119e-05
6.4997109e-05
8.3042933e-05
0.00010812695
0.00014501878
0.00020436188
0.00031425953
0.00057226625
0.001461647
2.7825903e-05
2.9886145e-05
3.4404005e-05
4.1417797e-05
5.1253382e-05
6.4558428e-05
8.2564173e-05
0.0001076364
0.00014454835
0.00020394524
0.00031392998
0.00057205016
0.0014613765
2.7673027e-05
2.9706137e-05
3.4170743e-05
4.1117252e-05
5.0884562e-05
6.4132718e-05
8.2102532e-05
0.00010716596
0.00014409957
0.00020354948
0.00031361638
0.00057183578
0.0014610624
2.7512719e-05
2.9520759e-05
3.3936163e-05
4.0820554e-05
5.0525005e-05
6.372125e-05
8.1659246e-05
0.00010671685
0.00014367354
0.0002031756
0.00031331977
0.00057162448
0.0014607113
2.7346785e-05
2.933171e-05
3.3701774e-05
4.0529009e-05
5.0175859e-05
6.3325071e-05
8.1235294e-05
0.00010628995
0.00014327103
0.00020282422
0.00031304067
0.00057141634
0.0014603287
2.717685e-05
2.9140515e-05
3.3468917e-05
4.0243755e-05
4.9838089e-05
6.2945023e-05
8.0831424e-05
0.00010588592
0.0001428926
0.00020249586
0.00031277948
0.00057120916
0.0014599198
2.7004375e-05
2.8948538e-05
3.3238776e-05
3.9965772e-05
4.9512493e-05
6.258176e-05
8.044817e-05
0.00010550516
0.00014253848
0.0002021904
0.00031253528
0.00057100454
0.0014594897
2.6830664e-05
2.8756991e-05
3.3012391e-05
3.9695897e-05
4.9199718e-05
6.2235772e-05
8.0085888e-05
0.00010514792
0.00014220884
0.00020190798
0.00031230606
0.00057080556
0.0014590436
2.665688e-05
2.8566948e-05
3.2790668e-05
3.9434833e-05
4.8900272e-05
6.1907393e-05
7.9744763e-05
0.00010481423
0.00014190342
0.00020164696
0.00031209271
0.00057061379
0.0014585866
2.6484051e-05
2.8379354e-05
3.2574388e-05
3.9183164e-05
4.8614537e-05
6.1596821e-05
7.9424812e-05
0.00010450388
0.0001416217
0.00020140637
0.00031189572
0.00057043036
0.0014581233
2.6313085e-05
2.8195033e-05
3.2364221e-05
3.8941362e-05
4.8342784e-05
6.1304145e-05
7.912597e-05
0.00010421666
0.0001413622
0.00020118621
0.0003117152
0.00057025604
0.0014576574
2.6144776e-05
2.8014705e-05
3.2160731e-05
3.8709801e-05
4.8085187e-05
6.1029342e-05
7.8847989e-05
0.00010395153
0.00014112446
0.00020098614
0.00031155098
0.00057009129
0.0014571927
2.5979816e-05
2.7838985e-05
3.196439e-05
3.8488764e-05
4.7841825e-05
6.0772278e-05
7.8590339e-05
0.00010370765
0.00014090799
0.00020080567
0.00031140269
0.00056993638
0.0014567321
2.5818804e-05
2.7668401e-05
3.1775586e-05
3.8278458e-05
4.7612708e-05
6.0532709e-05
7.8352161e-05
0.0001034845
0.00014071217
0.00020064417
0.00031126983
0.00056979137
0.0014562783
2.5662252e-05
2.75034e-05
3.1594634e-05
3.8079036e-05
4.7397761e-05
6.0309963e-05
7.8132969e-05
0.00010328148
0.0001405363
0.00020050088
0.00031115181
0.00056965622
0.0014558335
2.55106e-05
2.7344362e-05
3.1421802e-05
3.7890537e-05
4.7196578e-05
6.0103648e-05
7.7932215e-05
0.00010309789
0.00014037958
0.000200375
0.00031104793
0.00056953079
0.0014553998
2.5364228e-05
2.7191606e-05
3.1257215e-05
3.7712813e-05
4.7008902e-05
5.9913332e-05
7.7749298e-05
0.00010293299
0.00014024115
0.00020026563
0.00031095747
0.00056941486
0.0014549786
2.5223416e-05
2.7045322e-05
3.1100917e-05
3.7545751e-05
4.6834441e-05
5.9738539e-05
7.7583573e-05
0.00010278598
0.00014012011
0.00020017188
0.00031087967
0.00056930816
0.0014545713
2.5088367e-05
2.6905646e-05
3.0952917e-05
3.7389204e-05
4.667287e-05
5.9578764e-05
7.7434356e-05
0.00010265602
0.00014001554
0.00020009279
0.00031081374
0.00056921039
0.0014541791
2.4959229e-05
2.6772667e-05
3.0813189e-05
3.7242991e-05
4.6523834e-05
5.9433467e-05
7.7300937e-05
0.00010254227
0.00013992647
0.00020002742
0.00031075889
0.00056912121
0.0014538027
2.4836108e-05
2.6646435e-05
3.0681671e-05
3.7106903e-05
4.638695e-05
5.9302085e-05
7.718258e-05
0.00010244384
0.00013985196
0.00019997482
0.00031071434
0.00056904026
0.0014534429
2.4719068e-05
2.6526962e-05
3.0558272e-05
3.6980703e-05
4.626181e-05
5.9184034e-05
7.7078537e-05
0.00010235984
0.00013979104
0.00019993406
0.00031067932
0.00056896717
0.0014531002
2.4608138e-05
2.6414228e-05
3.0442869e-05
3.6864127e-05
4.6147989e-05
5.9078716e-05
7.6988045e-05
0.00010228941
0.00013974276
0.0001999042
0.00031065307
0.00056890156
0.0014527749
2.4503316e-05
2.6308184e-05
3.0335315e-05
3.6756892e-05
4.604504e-05
5.8985516e-05
7.691034e-05
0.00010223164
0.00013970619
0.00019988437
0.00031063487
0.00056884305
0.0014524672
2.440457e-05
2.6208753e-05
3.0235437e-05
3.6658696e-05
4.5952507e-05
5.8903817e-05
7.6844656e-05
0.00010218567
0.00013968041
0.00019987368
0.00031062399
0.00056879125
0.0014521773
2.4311844e-05
2.6115833e-05
3.0143045e-05
3.6569217e-05
4.5869918e-05
5.8832994e-05
7.6790232e-05
0.00010215064
0.00013966452
0.00019987128
0.00031061977
0.00056874578
0.001451905
2.4225057e-05
2.6029302e-05
3.0057928e-05
3.6488124e-05
4.5796798e-05
5.8772424e-05
7.6746315e-05
0.0001021257
0.00013965767
0.00019987639
0.00031062155
0.00056870625
0.0014516502
2.4144108e-05
2.5949018e-05
2.9979858e-05
3.6415072e-05
4.5732664e-05
5.8721484e-05
7.6712163e-05
0.00010211005
0.000139659
0.00019988821
0.00031062872
0.00056867229
0.0014514128
2.4068875e-05
2.5874821e-05
2.9908595e-05
3.6349706e-05
4.5677031e-05
5.8679558e-05
7.6687049e-05
0.00010210288
0.00013966773
0.00019990603
0.00031064068
0.00056864353
0.0014511923
2.3999224e-05
2.5806538e-05
2.9843888e-05
3.6291668e-05
4.5629414e-05
5.8646039e-05
7.6670266e-05
0.00010210342
0.00013968308
0.00019992913
0.00031065688
0.00056861961
0.0014509885
2.3935002e-05
2.5743982e-05
2.9785475e-05
3.6240592e-05
4.5589331e-05
5.8620329e-05
7.6661123e-05
0.00010211094
0.00013970433
0.00019995687
0.00031067679
0.00056860018
0.0014508009
2.3876046e-05
2.5686953e-05
2.9733086e-05
3.6196111e-05
4.5556304e-05
5.8601843e-05
7.6658953e-05
0.00010212473
0.00013973077
0.00019998862
0.00031069994
0.0005685849
0.0014506289
2.3822182e-05
2.5635246e-05
2.9686447e-05
3.6157859e-05
4.5529861e-05
5.8590012e-05
7.6663114e-05
0.00010214411
0.00013976176
0.00020002381
0.00031072585
0.00056857343
0.0014504722
2.3773225e-05
2.5588644e-05
2.9645278e-05
3.6125468e-05
4.5509539e-05
5.8584282e-05
7.6672985e-05
0.00010216844
0.00013979668
0.00020006189
0.0003107541
0.00056856546
0.0014503299
2.3728984e-05
2.5546927e-05
2.9609298e-05
3.6098575e-05
4.5494884e-05
5.8584117e-05
7.6687975e-05
0.00010219711
0.00013983494
0.00020010236
0.0003107843
0.0005685607
0.0014502017
2.3689262e-05
2.5509869e-05
2.9578223e-05
3.607682e-05
4.5485453e-05
5.8589001e-05
7.670752e-05
0.00010222955
0.00013987602
0.00020014475
0.00031081608
0.00056855885
0.0014500867
2.3653856e-05
2.5477242e-05
2.9551773e-05
3.6059851e-05
4.5480817e-05
5.8598437e-05
7.673108e-05
0.00010226521
0.00013991939
0.00020018864
0.00031084911
0.00056855965
0.0014499845
2.3622561e-05
2.5448815e-05
2.9529666e-05
3.604732e-05
4.5480557e-05
5.8611949e-05
7.6758148e-05
0.00010230359
0.0001399646
0.00020023364
0.00031088308
0.00056856285
0.0014498942
2.3595169e-05
2.5424358e-05
2.9511624e-05
3.6038888e-05
4.5484272e-05
5.8629083e-05
7.6788243e-05
0.00010234421
0.00014001121
0.00020027937
0.00031091771
0.00056856823
0.0014498154
2.3571471e-05
2.5403638e-05
2.9497373e-05
3.6034225e-05
4.5491576e-05
5.8649409e-05
7.6820911e-05
0.00010238663
0.00014005883
0.00020032552
0.00031095276
0.00056857555
0.0014497473
2.3551257e-05
2.5386428e-05
2.9486645e-05
3.6033012e-05
4.5502096e-05
5.8672515e-05
7.685573e-05
0.00010243044
0.0001401071
0.00020037178
0.000310988
0.00056858462
0.0014496894
2.3534319e-05
2.5372501e-05
2.9479175e-05
3.6034937e-05
4.5515477e-05
5.8698016e-05
7.6892301e-05
0.00010247527
0.00014015567
0.00020041789
0.00031102321
0.00056859523
0.001449641
2.3520451e-05
2.5361632e-05
2.9474707e-05
3.6039703e-05
4.5531382e-05
5.8725545e-05
7.6930255e-05
0.00010252076
0.00014020424
0.00020046361
0.00031105821
0.00056860722
0.0014496015
2.3509448e-05
2.5353602e-05
2.947299e-05
3.6047023e-05
4.5549489e-05
5.875476e-05
7.696925e-05
0.0001025666
0.00014025255
0.00020050871
0.00031109282
0.00056862038
0.0014495704
2.3501109e-05
2.5348195e-05
2.9473782e-05
3.605662e-05
4.5569493e-05
5.878534e-05
7.7008967e-05
0.00010261249
0.00014030034
0.00020055299
0.00031112689
0.00056863454
0.0014495471
2.3495237e-05
2.5345203e-05
2.947685e-05
3.6068233e-05
4.5591106e-05
5.8816985e-05
7.7049114e-05
0.00010265816
0.00014034739
0.00020059629
0.00031116028
0.00056864952
0.001449531
2.3491638e-05
2.534442e-05
2.9481966e-05
3.608161e-05
4.5614058e-05
5.8849419e-05
7.7089423e-05
0.00010270339
0.00014039351
0.00020063846
0.00031119286
0.00056866515
0.0014495216
2.3490126e-05
2.5345649e-05
2.9488915e-05
3.6096514e-05
4.5638097e-05
5.8882383e-05
7.7129651e-05
0.00010274795
0.00014043851
0.00020067935
0.00031122452
0.00056868127
0.0014495182
2.3490518e-05
2.5348699e-05
2.9497489e-05
3.611272e-05
4.5662984e-05
5.8915642e-05
7.7169575e-05
0.00010279165
0.00014048225
0.00020071885
0.00031125515
0.00056869772
0.0014495204
2.3492637e-05
2.5353385e-05
2.9507492e-05
3.6130017e-05
4.5688501e-05
5.8948978e-05
7.7208997e-05
0.00010283433
0.00014052459
0.00020075687
0.00031128469
0.00056871436
0.0014495276
2.3496314e-05
2.5359533e-05
2.9518735e-05
3.6148207e-05
4.5714445e-05
5.8982196e-05
7.724774e-05
0.00010287583
0.00014056543
0.00020079333
0.00031131305
0.00056873107
0.0014495392
2.3501387e-05
2.5366974e-05
2.9531042e-05
3.6167104e-05
4.5740629e-05
5.9015117e-05
7.7285646e-05
0.00010291603
0.00014060468
0.00020082818
0.00031134019
0.00056874775
0.0014495547
2.3507698e-05
2.5375548e-05
2.9544246e-05
3.6186537e-05
4.5766883e-05
5.9047583e-05
7.7322579e-05
0.00010295483
0.00014064226
0.00020086136
0.00031136608
0.00056876431
0.0014495736
2.3515101e-05
2.5385102e-05
2.9558189e-05
3.6206346e-05
4.5793051e-05
5.9079451e-05
7.735842e-05
0.00010299214
0.00014067812
0.00020089285
0.00031139069
0.00056878068
0.0014495955
2.3523453e-05
2.5395495e-05
2.9572726e-05
3.6226385e-05
4.5818993e-05
5.9110597e-05
7.7393069e-05
0.00010302788
0.00014071222
0.00020092265
0.00031141402
0.00056879681
0.0014496199
2.3532622e-05
2.540659e-05
2.9587721e-05
3.624652e-05
4.5844584e-05
5.9140912e-05
7.7426442e-05
0.00010306201
0.00014074454
0.00020095073
0.00031143607
0.00056881262
0.0014496464
2.3542482e-05
2.5418262e-05
2.9603047e-05
3.6266628e-05
4.5869711e-05
5.9170301e-05
7.7458469e-05
0.00010309448
0.00014077506
0.00020097712
0.00031145684
0.00056882803
0.0014496747
2.3552914e-05
2.5430392e-05
2.9618587e-05
3.6286599e-05
4.5894276e-05
5.9198686e-05
7.7489095e-05
0.00010312526
0.00014080379
0.00020100184
0.00031147634
0.00056884276
0.0014497045
2.3563807e-05
2.5442871e-05
2.9634235e-05
3.6306332e-05
4.5918192e-05
5.9225999e-05
7.7518279e-05
0.00010315435
0.00014083073
0.00020102488
0.00031149453
0.00056885676
0.0014497353
2.3575059e-05
2.5455596e-05
2.9649892e-05
3.6325738e-05
4.5941383e-05
5.9252184e-05
7.754599e-05
0.00010318173
0.0001408559
0.0002010463
0.00031151128
0.00056887016
0.0014497671
2.3586573e-05
2.5468473e-05
2.966547e-05
3.6344737e-05
4.5963785e-05
5.9277199e-05
7.757221e-05
0.00010320742
0.00014087932
0.00020106606
0.00031152663
0.00056888301
0.0014497996
2.359826e-05
2.5481416e-05
2.9680887e-05
3.6363259e-05
4.5985344e-05
5.9301011e-05
7.759693e-05
0.00010323143
0.00014090103
0.00020108411
0.00031154069
0.00056889535
0.0014498325
2.3610038e-05
2.5494345e-05
2.969607e-05
3.6381243e-05
4.6006017e-05
5.9323597e-05
7.7620152e-05
0.00010325377
0.00014092099
0.00020110054
0.00031155354
0.00056890719
0.0014498659
2.3621831e-05
2.5507187e-05
2.9710956e-05
3.6398636e-05
4.6025767e-05
5.9344943e-05
7.7641881e-05
0.00010327447
0.00014093923
0.00020111542
0.00031156523
0.00056891851
0.0014498994
2.3633571e-05
2.5519877e-05
2.9725485e-05
3.6415394e-05
4.6044569e-05
5.9365047e-05
7.7662141e-05
0.0001032935
0.00014095581
0.00020112883
0.00031157581
0.0005689293
0.0014499328
2.3645196e-05
2.5532358e-05
2.973961e-05
3.6431482e-05
4.6062407e-05
5.9383912e-05
7.7680913e-05
0.00010331092
0.0001409708
0.00020114084
0.00031158535
0.00056893955
0.0014499661
2.3656649e-05
2.5544577e-05
2.9753286e-05
3.6446871e-05
4.6079271e-05
5.9401528e-05
7.7698216e-05
0.00010332677
0.00014098427
0.00020115151
0.00031159388
0.00056894924
0.0014499989
2.3667883e-05
2.555649e-05
2.976648e-05
3.6461541e-05
4.6095146e-05
5.9417895e-05
7.771409e-05
0.00010334112
0.00014099629
0.00020116093
0.00031160145
0.00056895838
0.0014500313
2.3678853e-05
2.5568057e-05
2.9779163e-05
3.647547e-05
4.6110021e-05
5.9433033e-05
7.7728576e-05
0.00010335403
0.00014100694
0.00020116915
0.00031160811
0.00056896694
0.0014500629
2.3689523e-05
2.5579247e-05
2.9791305e-05
3.6488639e-05
4.6123902e-05
5.9446969e-05
7.7741722e-05
0.00010336556
0.00014101628
0.00020117624
0.00031161391
0.00056897493
0.0014500937
2.3699858e-05
2.5590027e-05
2.9802884e-05
3.6501041e-05
4.6136798e-05
5.9459734e-05
7.7753579e-05
0.00010337578
0.00014102438
0.00020118228
0.0003116189
0.00056898236
0.0014501235
2.370983e-05
2.5600371e-05
2.9813882e-05
3.6512673e-05
4.6148726e-05
5.9471363e-05
7.7764199e-05
0.00010338475
0.00014103132
0.00020118732
0.00031162312
0.00056898923
0.0014501522
2.3719411e-05
2.5610258e-05
2.9824289e-05
3.6523539e-05
4.6159707e-05
5.9481898e-05
7.777364e-05
0.00010339253
0.00014103716
0.00020119144
0.00031162664
0.00056899556
0.0014501798
2.3728583e-05
2.5619672e-05
2.9834097e-05
3.6533646e-05
4.6169766e-05
5.9491379e-05
7.7781958e-05
0.00010339921
0.00014104199
0.00020119469
0.00031162949
0.00056900138
0.0014502062
2.3737329e-05
2.5628603e-05
2.9843307e-05
3.6543007e-05
4.6178932e-05
5.9499851e-05
7.7789212e-05
0.00010340484
0.00014104587
0.00020119716
0.00031163173
0.0005690067
0.0014502313
2.3745639e-05
2.5637042e-05
2.9851919e-05
3.6551637e-05
4.6187235e-05
5.9507362e-05
7.7795462e-05
0.00010340949
0.00014104886
0.00020119889
0.00031163341
0.00056901156
0.0014502551
2.3753503e-05
2.5644987e-05
2.9859939e-05
3.6559555e-05
4.6194708e-05
5.9513958e-05
7.7800768e-05
0.00010341323
0.00014105104
0.00020119996
0.00031163457
0.00056901598
0.0014502777
2.3760919e-05
2.5652437e-05
2.9867377e-05
3.6566781e-05
4.6201387e-05
5.9519689e-05
7.7805187e-05
0.00010341613
0.00014105248
0.00020120041
0.00031163526
0.00056901997
0.001450299
2.3767884e-05
2.5659396e-05
2.9874245e-05
3.657334e-05
4.6207308e-05
5.9524603e-05
7.780878e-05
0.00010341825
0.00014105323
0.0002012003
0.00031163552
0.00056902355
0.001450319
2.3774402e-05
2.566587e-05
2.9880555e-05
3.6579255e-05
4.6212509e-05
5.9528749e-05
7.7811602e-05
0.00010341964
0.00014105335
0.00020119969
0.00031163538