/*--------------------------------*- C++ -*----------------------------------*\
| =========                 |                                                 |
| \\      /  F ield         | OpenFOAM: The Open Source CFD Toolbox           |
|  \\    /   O peration     | Version:  2506                                  |
|   \\  /    A nd           | Website:  www.openfoam.com                      |
|    \\/     M anipulation  |                                                 |
\*---------------------------------------------------------------------------*/
FoamFile
{
    version     2.0;
    format      ascii;
    arch        "LSB;label=32;scalar=64";
    class       volScalarField;
    location    "26000/water";
    object      k;
}
// * * * * * * * * * * * * * * * * * * * * * * * * * * * * * * * * * * * * * //

dimensions      [0 2 -2 0 0 0 0];

internalField   nonuniform List<scalar> 
2600
(
0.0001992401
0.00019923925
0.00019923929
0.00019923963
0.00019923982
0.00019923914
0.00019923438
0.00019921375
0.00019914651
0.00019904325
0.00019990841
0.00021454267
0.00040955349
0.00017237279
0.00017237614
0.00017237826
0.00017238051
0.0001723821
0.00017237949
0.00017235884
0.00017227555
0.000172027
0.00017162102
0.00017329371
0.00020304806
0.00052391648
0.00015132731
0.00015133049
0.00015133306
0.00015133552
0.00015133516
0.00015132207
0.00015126283
0.00015106462
0.00015055477
0.00014985944
0.0001528957
0.00019760629
0.00057958156
0.00013448336
0.00013448533
0.00013448764
0.00013448905
0.00013448325
0.00013445009
0.00013432997
0.00013398205
0.00013321503
0.00013247936
0.00013787909
0.00019702317
0.00059640815
0.00012075551
0.00012075697
0.00012075853
0.00012075718
0.00012074152
0.0001206782
0.00012048052
0.00011997843
0.0001190486
0.00011870929
0.00012776334
0.00020116854
0.00059206885
0.0001093899
0.00010939088
0.000109391
0.00010938492
0.00010935483
0.00010925313
0.00010897207
0.00010834649
0.00010742643
0.0001080609
0.00012226457
0.00021023394
0.00057809221
9.984982e-05
9.9850093e-05
9.9847944e-05
9.9835056e-05
9.9786463e-05
9.9641865e-05
9.9284958e-05
9.859999e-05
9.7925044e-05
0.00010022517
0.00012123091
0.00022425603
0.00056106272
9.1744874e-05
9.174416e-05
9.1738826e-05
9.1717148e-05
9.1647174e-05
9.1460104e-05
9.1049018e-05
9.0398665e-05
9.0258419e-05
9.5030413e-05
0.00012461431
0.00024286356
0.00054449405
8.4785472e-05
8.4783454e-05
8.4774018e-05
8.4741918e-05
8.4649457e-05
8.4426122e-05
8.3996574e-05
8.3502376e-05
8.4241543e-05
9.2421343e-05
0.00013239492
0.00026511347
0.00053012765
7.8752977e-05
7.8749319e-05
7.8734951e-05
7.8691403e-05
7.8577619e-05
7.8330528e-05
7.7932172e-05
7.7743318e-05
7.9771153e-05
9.2438123e-05
0.00014444361
0.00028951151
0.0005186607
7.3479682e-05
7.3474066e-05
7.3454131e-05
7.3398964e-05
7.3267704e-05
7.3016085e-05
7.2712929e-05
7.3009357e-05
7.6815022e-05
9.5182833e-05
0.00016036324
0.00031428525
0.00051014247
6.8835097e-05
6.8827266e-05
6.8801436e-05
6.8735571e-05
6.8593744e-05
6.836405e-05
6.8235745e-05
6.923421e-05
7.5403717e-05
0.00010076472
0.00017939077
0.00033780739
0.0005042266
6.4716374e-05
6.4706175e-05
6.4674551e-05
6.4600233e-05
6.4458202e-05
6.4284863e-05
6.4429045e-05
6.6391811e-05
7.5619874e-05
0.0001092241
0.00020043529
0.00035894529
0.00050037283
6.1041501e-05
6.1028932e-05
6.0992164e-05
6.091321e-05
6.0785257e-05
6.0711783e-05
6.1247563e-05
6.4493004e-05
7.758081e-05
0.00012045028
0.00022225715
0.00037717552
0.0004980107
5.7744396e-05
5.7729653e-05
5.7689074e-05
5.7611142e-05
5.751606e-05
5.7596592e-05
5.8669223e-05
6.3582873e-05
8.141159e-05
0.00013412438
0.00024370832
0.00039247762
0.00049664628
5.4771313e-05
5.4754847e-05
5.4712615e-05
5.4643526e-05
5.4605384e-05
5.4906753e-05
5.6693486e-05
6.3736862e-05
8.7208046e-05
0.00014971788
0.00026392364
0.00040513366
0.00049590625
5.2078186e-05
5.206076e-05
5.2020025e-05
5.1970154e-05
5.2019282e-05
5.2623661e-05
5.5340604e-05
6.5053658e-05
9.4994185e-05
0.00016655656
0.0002823955
0.0004155487
0.00049553614
4.9628635e-05
4.9611393e-05
4.9576492e-05
4.9559258e-05
4.9733503e-05
5.0741692e-05
5.4651194e-05
6.7643172e-05
0.00010468473
0.00018392817
0.00029893687
0.00042413793
0.00049537652
4.7392458e-05
4.7377004e-05
4.7353699e-05
4.7386176e-05
4.773248e-05
4.9267885e-05
5.4685329e-05
7.1608743e-05
0.00011606686
0.00020119288
0.00031358495
0.0004312733
0.00049533511
4.5344476e-05
4.5332971e-05
4.5328746e-05
4.5432431e-05
4.600877e-05
4.8222045e-05
5.5520139e-05
7.7024464e-05
0.0001288111
0.00021785899
0.0003265001
0.00043726614
0.00049536294
4.3463657e-05
4.3458933e-05
4.3483358e-05
4.3685127e-05
4.4562868e-05
4.7637066e-05
5.7244889e-05
8.3911111e-05
0.00014251077
0.00023360814
0.00033789058
0.00044236712
0.00049543702
4.1732429e-05
4.173814e-05
4.1803329e-05
4.2136614e-05
4.3403329e-05
4.7559128e-05
5.9952701e-05
9.2216779e-05
0.00015673763
0.00024827798
0.00034796835
0.00044677302
0.00049554866
4.0136167e-05
4.015697e-05
4.0278148e-05
4.0784372e-05
4.2547129e-05
4.8047288e-05
6.3728702e-05
0.00010180889
0.00017109625
0.00026182259
0.0003569282
0.0004506357
0.00049569617
3.8662802e-05
3.8704582e-05
3.8900797e-05
3.9631106e-05
4.2020193e-05
4.917184e-05
6.8635429e-05
0.00011248165
0.00018526229
0.00027427017
0.00036494027
0.00045407112
0.00049588069
3.7302531e-05
3.7372692e-05
3.7667676e-05
3.8685008e-05
4.1857943e-05
5.1010814e-05
7.4697741e-05
0.00012397797
0.0001989986
0.00028568911
0.00037214921
0.00045716734
0.00049610391
3.6047628e-05
3.6155447e-05
3.6578682e-05
3.7960181e-05
4.210565e-05
5.3644134e-05
8.1890758e-05
0.00013601987
0.00021215192
0.00029616532
0.00037867606
0.00045999115
0.00049636709
3.4892327e-05
3.5049398e-05
3.5637397e-05
3.74772e-05
4.2818252e-05
5.7145341e-05
9.0134482e-05
0.00014833914
0.00022463802
0.00030578893
0.00038462123
0.0004625934
0.00049667064
3.383279e-05
3.4053568e-05
3.485141e-05
3.7263735e-05
4.4059202e-05
6.157146e-05
9.929738e-05
0.00016070076
0.00023642317
0.00031464715
0.00039006765
0.000465013
0.00049701417
3.2867148e-05
3.316962e-05
3.4232754e-05
3.7355161e-05
4.589791e-05
6.6952454e-05
0.00010920862
0.00017291581
0.0002475074
0.0003228208
0.00039508381
0.00046727999
0.00049739655
3.1995627e-05
3.2402111e-05
3.3798454e-05
3.7794962e-05
4.8405429e-05
7.3282442e-05
0.00011967598
0.00018484398
0.00025791156
0.0003303829
0.00039972636
0.00046941776
0.00049781616
3.1220754e-05
3.1758868e-05
3.3571166e-05
3.8634689e-05
5.1648303e-05
8.0515042e-05
0.00013050502
0.00019638898
0.00026766841
0.00033739837
0.00040404225
0.00047144509
0.00049827105
3.0547674e-05
3.1251458e-05
3.3579859e-05
3.9933129e-05
5.5680958e-05
8.8564417e-05
0.00014151527
0.0002074904
0.00027681665
0.00034392426
0.00040806986
0.00047336164
0.00049875826
2.9984563e-05
3.0895778e-05
3.3860461e-05
4.1754322e-05
6.0537583e-05
9.7312148e-05
0.00015255088
0.000218115
0.00028539697
0.00035000994
0.0004118398
0.0004751768
0.00049927447
2.9543171e-05
3.071274e-05
3.4456302e-05
4.4164148e-05
6.6224999e-05
0.00010661842
0.00016348528
0.00022824912
0.00029344998
0.00035569875
0.00041537494
0.00047690094
0.00049981637
2.9239498e-05
3.0729039e-05
3.5418146e-05
4.7225358e-05
7.2718205e-05
0.00011633495
0.000174221
0.0002378927
0.00030101456
0.00036102769
0.00041869396
0.00047854309
0.00050038113
2.9094594e-05
3.097795e-05
3.6803498e-05
5.0991326e-05
7.995987e-05
0.00012631694
0.0001846865
0.00024705467
0.00030812682
0.00036602757
0.00042181617
0.00048011507
0.00050096676
2.9135495e-05
3.1500044e-05
3.8674856e-05
5.549918e-05
8.7864154e-05
0.00013643208
0.00019483195
0.00025575014
0.00031482084
0.00037072328
0.00042475509
0.00048162855
0.00050157201
2.939623e-05
3.2343667e-05
4.1096627e-05
6.0763498e-05
9.6324068e-05
0.00014656574
0.00020462432
0.00026399671
0.00032112528
0.0003751379
0.00042753009
0.00048308918
0.0005021953
2.991884e-05
3.3564907e-05
4.4130582e-05
6.6771882e-05
0.00010522079
0.00015662303
0.00021404419
0.00027181507
0.00032706609
0.0003792875
0.00043015901
0.00048450268
0.00050283512
3.0754241e-05
3.5226723e-05
4.7830032e-05
7.3483555e-05
0.00011443288
0.00016652784
0.00022308103
0.00027922365
0.0003326647
0.00038319525
0.00043265452
0.0004858731
0.00050348989
3.1962695e-05
3.7396842e-05
5.2233349e-05
8.083146e-05
0.00012384409
0.00017622137
0.00023173238
0.00028624171
0.00033793724
0.00038688254
0.00043502775
0.00048720354
0.00050415803
3.3613506e-05
4.0144093e-05
5.7357852e-05
8.8727399e-05
0.00013334837
0.00018565852
0.00023999855
0.00029288457
0.00034290599
0.00039036648
0.0004372879
0.00048849633
0.00050483796
3.5783411e-05
4.3533078e-05
6.3195316e-05
9.7069237e-05
0.00014285307
0.00019480683
0.00024788468
0.0002991623
0.00034759328
0.00039366185
0.00043944267
0.00048975323
0.00050552811
3.8553075e-05
4.7617441e-05
6.9710124e-05
0.00010574827
0.00015227865
0.00020364078
0.00025539328
0.00030509326
0.00035201756
0.00039678114
0.00044149839
0.00049097541
0.00050622691
4.2001166e-05
5.2432574e-05
7.684073e-05
0.00011465642
0.00016156001
0.00021214494
0.00026252192
0.00031069681
0.00035619497
0.00039973502
0.00044346027
0.00049216364
0.00050693282
4.6195936e-05
5.7988979e-05
8.4503829e-05
0.00012369061
0.00017064179
0.00022029902
0.00026928194
0.00031598928
0.00036013925
0.00040253237
0.00044533251
0.00049331825
0.00050764432
5.118504e-05
6.4267733e-05
9.2600655e-05
0.00013275651
0.00017947941
0.0002280859
0.00027568472
0.00032098505
0.00036386204
0.00040518058
0.00044711838
0.00049443922
0.0005083599
5.6985389e-05
7.1219318e-05
0.0001010246
0.00014177168
0.00018802211
0.00023550307
0.00028174034
0.00032569634
0.00036737308
0.00040768561
0.00044882031
0.00049552618
0.00050907801
6.3575513e-05
7.8766113e-05
0.00010966811
0.00015065105
0.00019623704
0.00024254868
0.00028745751
0.00033013336
0.0003706803
0.00041005212
0.00045043994
0.00049657842
0.00050979715
7.0893522e-05
8.6809061e-05
0.00011841803
0.00015932167
0.00020409994
0.00024922143
0.0002928434
0.00033430433
0.00037378991
0.00041228355
0.00045197818
0.00049759489
0.00051051573
7.8838296e-05
9.5225407e-05
0.0001271655
0.00016772591
0.00021159055
0.00025552002
0.00029790361
0.00033821558
0.00037670652
0.00041438218
0.00045343523
0.00049857423
0.00051123215
8.7271766e-05
0.0001038814
0.00013581418
0.00017581507
0.00021869192
0.00026144297
0.00030264214
0.00034187168
0.00037943325
0.0004163492
0.00045481056
0.00049951471
0.00051194472
9.6036186e-05
0.00011264289
0.00014427884
0.00018354849
0.00022538996
0.00026698859
0.00030706156
0.00034527551
0.00038197177
0.00041818473
0.000456103
0.00050041429
0.00051265167
0.00010496807
0.00012138215
0.00015248584
0.00019089296
0.00023167328
0.00027215509
0.00031116324
0.00034842857
0.00038432251
0.00041988798
0.00045731074
0.00050127057
0.00051335109
0.00011391052
0.00012998316
0.00016037318
0.00019782228
0.00023753324
0.00027694098
0.00031494769
0.00035133116
0.00038648485
0.0004214573
0.00045843141
0.00050208085
0.00051404095
0.00012272239
0.00013834509
0.00016789026
0.00020431685
0.00024296413
0.0002813454
0.00031841502
0.00035398281
0.00038845731
0.00042289037
0.00045946217
0.00050284215
0.00051471906
0.00013128378
0.00014638418
0.00017499745
0.00021036336
0.0002479633
0.00028536864
0.00032156538
0.00035638265
0.00039023794
0.00042418441
0.00046039984
0.00050355129
0.00051538311
0.00013949833
0.0001540342
0.00018166551
0.00021595434
0.00025253134
0.00028901253
0.0003243995
0.00035852985
0.00039182461
0.00042533646
0.00046124107
0.000504205
0.00051603063
0.00014729298
0.00016124577
0.00018787478
0.00022108778
0.00025667207
0.00029228081
0.00032691915
0.0003604241
0.00039321542
0.00042634364
0.00046198259
0.00050480006
0.00051665908
0.00015461609
0.00016798497
0.00019361428
0.00022576658
0.0002603925
0.00029517938
0.00032912753
0.00036206602
0.00039440909
0.0004272035
0.0004626214
0.00050533341
0.00051726587
0.0001614347
0.00017423148
0.00019888065
0.00022999801
0.00026370264
0.0002977164
0.00033102957
0.00036345753
0.00039540529
0.00042791429
0.00046315506
0.00050580239
0.00051784839
0.00016773149
0.00017997649
0.00020367712
0.00023379312
0.00026661519
0.0002999023
0.00033263211
0.00036460211
0.00039620497
0.0004284753
0.00046358188
0.00050620482
0.00051840415
0.00017350178
0.00018522069
0.00020801239
0.00023716612
0.00026914523
0.00030174962
0.00033394395
0.00036550503
0.00039681058
0.00042888703
0.00046390115
0.00050653924
0.00051893081
0.00017875075
0.0001899723
0.00021189964
0.00024013379
0.00027130978
0.00030327286
0.00033497585
0.00036617337
0.00039722623
0.00042915142
0.00046411332
0.00050680494
0.00051942623
0.00018349112
0.0001942454
0.00021535555
0.00024271494
0.00027312748
0.00030448815
0.00033574033
0.00036661602
0.00039745774
0.00042927191
0.00046422003
0.00050700212
0.00051988862
0.00018774112
0.00019805842
0.00021839948
0.00024492985
0.00027461813
0.00030541299
0.00033625152
0.00036684358
0.0003975126
0.00042925347
0.00046422423
0.00050713188
0.00052031649
0.00019152285
0.00020143289
0.00022105266
0.00024679988
0.00027580237
0.0003060659
0.00033652486
0.00036686819
0.00039739986
0.00042910251
0.00046413009
0.00050719623
0.00052070877
0.00019486101
0.00020439245
0.00022333761
0.00024834699
0.0002767013
0.0003064661
0.00033657685
0.00036670324
0.00039712996
0.00042882683
0.00046394295
0.00050719804
0.0005210648
0.00019778186
0.00020696199
0.00022527761
0.00024959345
0.00027733625
0.00030663327
0.00033642472
0.0003663632
0.00039671453
0.00042843533
0.00046366916
0.00050714095
0.00052138435
0.00020031244
0.00020916705
0.00022689622
0.00025056151
0.00027772845
0.00030658719
0.00033608619
0.00036586324
0.00039616609
0.00042793792
0.00046331595
0.00050702925
0.0005216676
0.00020247996
0.00021103328
0.00022821696
0.00025127318
0.00027789888
0.00030634757
0.00033557914
0.00036521903
0.00039549784
0.0004273452
0.00046289118
0.00050686774
0.00052191512
0.00020431136
0.00021258606
0.00022926301
0.00025175003
0.00027786802
0.00030593379
0.00033492145
0.00036444645
0.00039472336
0.00042666823
0.00046240318
0.00050666161
0.00052212784
0.00020583298
0.00021385023
0.00023005701
0.00025201301
0.00027765577
0.00030536475
0.00033413068
0.00036356134
0.00039385639
0.00042591835
0.00046186056
0.00050641628
0.00052230702
0.00020707031
0.00021484984
0.0002306209
0.00025208237
0.00027728129
0.00030465873
0.00033322397
0.00036257928
0.00039291057
0.00042510691
0.00046127198
0.00050613727
0.00052245415
0.00020804786
0.00021560805
0.00023097576
0.0002519775
0.00027676293
0.00030383323
0.00033221784
0.00036151542
0.00039189926
0.00042424506
0.000460646
0.00050583007
0.00052257099
0.00020878901
0.00021614699
0.00023114178
0.00025171694
0.00027611814
0.00030290494
0.00033112807
0.00036038432
0.00039083538
0.00042334364
0.00045999095
0.00050550003
0.00052265942
0.00020931597
0.00021648768
0.00023113813
0.00025131826
0.00027536345
0.00030188963
0.00032996963
0.00035919981
0.00038973121
0.00042241298
0.00045931476
0.0005051523
0.00052272147
0.00020964974
0.00021665003
0.00023098299
0.00025079808
0.0002745144
0.0003008021
0.00032875656
0.0003579749
0.00038859835
0.0004214628
0.00045862489
0.0005047917
0.00052275923
0.00020981009
0.00021665281
0.00023069348
0.00025017202
0.00027358558
0.0002996562
0.00032750195
0.00035672172
0.00038744757
0.00042050215
0.00045792825
0.00050442272
0.00052277482
0.00020981555
0.00021651363
0.00023028568
0.00024945472
0.00027259056
0.00029846476
0.00032621794
0.00035545147
0.00038628881
0.00041953929
0.00045723115
0.00050404945
0.00052277037
0.00020968347
0.00021624896
0.00022977463
0.00024865981
0.00027154194
0.00029723961
0.00032491563
0.00035417436
0.00038513108
0.00041858173
0.00045653923
0.00050367558
0.00052274795
0.00020943001
0.00021587418
0.00022917436
0.00024779998
0.00027045137
0.00029599162
0.00032360518
0.00035289967
0.00038398253
0.00041763615
0.00045585754
0.00050330436
0.00052270959
0.00020907021
0.00021540358
0.00022849788
0.00024688696
0.00026932953
0.00029473069
0.00032229573
0.00035163571
0.00038285037
0.00041670845
0.00045519043
0.00050293865
0.00052265725
0.000208618
0.0002148504
0.00022775724
0.00024593155
0.0002681862
0.00029346576
0.00032099552
0.00035038987
0.00038174096
0.00041580373
0.00045454166
0.00050258089
0.00052259276
0.00020808625
0.00021422688
0.00022696355
0.00024494368
0.00026703028
0.00029220492
0.00031971185
0.00034916862
0.00038065979
0.00041492634
0.00045391436
0.0005022331
0.00052251788
0.00020748684
0.00021354431
0.00022612704
0.00024393241
0.00026586982
0.00029095538
0.00031845116
0.00034797758
0.00037961154
0.00041407991
0.00045331101
0.00050189552
0.00052243417
0.00020683069
0.00021281303
0.00022525707
0.000242906
0.00026471207
0.00028972353
0.00031721908
0.00034682157
0.00037860011
0.00041326731
0.00045273333
0.00050156787
0.00052234297
0.00020612782
0.00021204255
0.00022436219
0.00024187191
0.00026356352
0.000288515
0.00031602044
0.00034570463
0.00037762871
0.00041249081
0.0004521817
0.00050125105
0.00052224547
0.00020538739
0.00021124154
0.00022345016
0.0002408369
0.00026242993
0.00028733469
0.00031485936
0.00034463008
0.00037669979
0.00041175187
0.00045165677
0.00050094654
0.00052214288
0.00020461774
0.00021041788
0.00022252802
0.00023980701
0.00026131641
0.00028618685
0.00031373929
0.00034360064
0.00037581529
0.00041105094
0.00045115877
0.00050065631
0.00052203649
0.00020382646
0.00020957873
0.00022160212
0.00023878763
0.00026022739
0.00028507507
0.00031266307
0.00034261834
0.00037497615
0.0004103883
0.00045068892
0.00050038136
0.00052192748
0.00020302043
0.00020873056
0.00022067815
0.00023778353
0.00025916675
0.00028400237
0.0003116329
0.00034168457
0.00037418288
0.0004097642
0.00045024808
0.00050012243
0.00052181692
0.00020220585
0.00020787917
0.00021976121
0.00023679894
0.00025813779
0.00028297125
0.0003106505
0.00034080008
0.0003734352
0.00040917933
0.00044983665
0.00049987994
0.00052170577
0.00020138828
0.00020702977
0.00021885581
0.0002358375
0.00025714333
0.00028198364
0.00030971691
0.00033996486
0.00037273347
0.00040863385
0.00044945468
0.00049965405
0.00052159486
0.00020057271
0.00020618701
0.00021796592
0.00023490239
0.00025618565
0.00028104098
0.00030883256
0.00033917885
0.00037207779
0.00040812757
0.00044910189
0.00049944471
0.00052148494
0.00019976358
0.000205355
0.00021709504
0.0002339963
0.00025526661
0.00028014419
0.00030799733
0.00033844216
0.00037146787
0.00040765999
0.00044877779
0.00049925169
0.00052137662
0.00019896482
0.00020453737
0.0002162462
0.00023312153
0.00025438759
0.00027929339
0.0003072114
0.00033775452
0.00037090311
0.00040723036
0.00044848169
0.00049907464
0.00052127046
0.00019817989
0.00020373729
0.00021542202
0.00023227981
0.00025354918
0.00027848897
0.00030647464
0.00033711536
0.00037038264
0.00040683769
0.00044821272
0.0004989131
0.00052116691
0.00019741186
0.00020295752
0.00021462454
0.00023147232
0.00025275209
0.00027773105
0.00030578663
0.00033652385
0.00036990538
0.00040648085
0.00044796991
0.00049876651
0.00052106636
0.00019666324
0.00020220027
0.00021385542
0.00023070015
0.00025199678
0.00027701947
0.0003051467
0.00033597892
0.00036947005
0.00040615852
0.00044775217
0.00049863428
0.00052096913
0.00019593615
0.00020146739
0.00021311605
0.00022996409
0.00025128342
0.00027635382
0.00030455396
0.00033547934
0.0003690752
0.00040586932
0.00044755837
0.00049851577
0.00052087548
0.00019523241
0.00020076044
0.00021240753
0.00022926469
0.00025061197
0.0002757335
0.00030400733
0.00033502369
0.00036871931
0.00040561174
0.00044738731
0.0004984103
0.00052078562
0.00019455352
0.00020008073
0.00021173074
0.00022860228
0.00024998215
0.0002751577
0.00030350556
0.00033461044
0.00036840071
0.00040538426
0.00044723776
0.00049831718
0.0005206997
0.00019390073
0.0001994293
0.00021108631
0.00022797697
0.00024939353
0.00027462545
0.00030304727
0.00033423794
0.0003681177
0.00040518529
0.0004471085
0.00049823573
0.00052061786
0.00019327505
0.00019880694
0.00021047465
0.00022738865
0.00024884548
0.00027413564
0.00030263096
0.00033390447
0.00036786851
0.00040501323
0.00044699828
0.00049816526
0.00052054017
0.00019267725
0.00019821425
0.00020989598
0.00022683708
0.00024833722
0.00027368703
0.00030225504
0.00033360824
0.00036765134
0.00040486648
0.00044690587
0.00049810508
0.00052046667
0.00019210791
0.00019765162
0.00020935033
0.00022632182
0.00024786783
0.00027327827
0.00030191783
0.00033334742
0.0003674644
0.00040474344
0.00044683008
0.00049805452
0.0005203974
0.00019156741
0.00019711926
0.00020883757
0.0002258423
0.0002474363
0.00027290792
0.00030161762
0.00033312015
0.00036730586
0.00040464253
0.0004467697
0.00049801291
0.00052033234
0.00019105595
0.00019661722
0.00020835742
0.00022539783
0.00024704148
0.00027257447
0.00030135263
0.00033292456
0.00036717392
0.00040456219
0.00044672359
0.00049797963
0.00052027146
0.00019057359
0.00019614537
0.00020790945
0.00022498757
0.00024668215
0.00027227634
0.00030112106
0.00033275876
0.0003670668
0.00040450089
0.00044669061
0.00049795403
0.00052021471
0.00019012021
0.00019570347
0.00020749312
0.00022461062
0.00024635701
0.00027201193
0.00030092107
0.00033262088
0.00036698274
0.00040445716
0.00044666968
0.00049793551
0.00052016202
0.00018969557
0.00019529113
0.00020710777
0.00022426596
0.00024606469
0.00027177956
0.00030075085
0.00033250907
0.00036692003
0.00040442955
0.00044665973
0.00049792348
0.0005201133
0.00018929931
0.00019490785
0.00020675262
0.0002239525
0.00024580377
0.00027157757
0.00030060856
0.0003324215
0.00036687698
0.00040441666
0.00044665977
0.00049791738
0.00052006845
0.00018893094
0.00019455302
0.00020642684
0.00022366909
0.0002455728
0.00027140424
0.00030049239
0.00033235638
0.00036685196
0.00040441714
0.00044666881
0.00049791666
0.00052002734
0.00018858987
0.00019422595
0.00020612948
0.0002234145
0.00024537028
0.00027125789
0.00030040054
0.00033231194
0.00036684339
0.0004044297
0.00044668592
0.0004979208
0.00051998986
0.00018827545
0.00019392584
0.00020585956
0.00022318748
0.0002451947
0.00027113682
0.00030033125
0.00033228648
0.00036684974
0.0004044531
0.00044671021
0.00049792929
0.00051995587
0.00018798692
0.00019365185
0.00020561602
0.00022298673
0.00024504453
0.00027103935
0.00030028278
0.00033227835
0.00036686954
0.00040448615
0.00044674085
0.00049794166
0.00051992521
0.00018772345
0.00019340306
0.00020539776
0.00022281093
0.00024491826
0.00027096381
0.00030025345
0.00033228593
0.00036690139
0.00040452773
0.00044677704
0.00049795745
0.00051989775
0.00018748418
0.00019317851
0.00020520364
0.00022265875
0.00024481436
0.00027090859
0.00030024162
0.00033230769
0.00036694394
0.00040457676
0.00044681802
0.00049797623
0.00051987331
0.00018726817
0.00019297719
0.00020503251
0.00022252883
0.00024473133
0.00027087208
0.0003002457
0.00033234216
0.00036699593
0.00040463225
0.00044686308
0.00049799761
0.00051985176
0.00018707447
0.00019279806
0.00020488318
0.00022241985
0.00024466771
0.00027085275
0.00030026417
0.00033238793
0.00036705614
0.00040469325
0.00044691158
0.00049802121
0.00051983294
0.00018690209
0.00019264007
0.00020475447
0.00022233046
0.00024462203
0.0002708491
0.00030029557
0.00033244366
0.00036712346
0.00040475888
0.0004469629
0.00049804667
0.00051981668
0.00018675001
0.00019250213
0.0002046452
0.00022225936
0.00024459289
0.00027085968
0.00030033851
0.00033250812
0.00036719683
0.00040482834
0.0004470165
0.00049807369
0.00051980284
0.00018661722
0.00019238319
0.00020455418
0.00022220526
0.00024457893
0.00027088312
0.00030039168
0.00033258011
0.00036727527
0.00040490088
0.00044707186
0.00049810198
0.00051979128
0.00018650269
0.00019228215
0.00020448024
0.0002221669
0.00024457883
0.0002709181
0.00030045382
0.00033265853
0.00036735787
0.00040497581
0.00044712852
0.00049813127
0.00051978184
0.00018640538
0.00019219794
0.00020442225
0.00022214306
0.00024459132
0.00027096336
0.00030052377
0.00033274235
0.00036744379
0.0004050525
0.00044718606
0.00049816133
0.0005197744
0.00018632428
0.00019212951
0.00020437906
0.00022213254
0.00024461517
0.0002710177
0.00030060042
0.00033283062
0.00036753226
0.00040513038
0.0004472441
0.00049819193
0.00051976881
0.00018625835
0.00019207579
0.00020434958
0.00022213419
0.00024464922
0.00027108
0.00030068272
0.00033292243
0.00036762256
0.00040520893
0.00044730229
0.00049822287
0.00051976495
0.0001862066
0.00019203576
0.00020433272
0.00022214689
0.00024469234
0.00027114918
0.00030076971
0.00033301697
0.00036771403
0.00040528766
0.00044736031
0.00049825397
0.00051976268
0.00018616801
0.00019200838
0.00020432742
0.00022216956
0.00024474347
0.00027122421
0.00030086047
0.00033311344
0.00036780605
0.00040536611
0.00044741785
0.00049828504
0.00051976187
0.00018614161
0.00019199267
0.00020433267
0.00022220115
0.00024480157
0.00027130414
0.00030095413
0.00033321113
0.00036789805
0.00040544388
0.00044747464
0.00049831592
0.00051976238
0.00018612643
0.00019198763
0.00020434745
0.00022224068
0.00024486567
0.00027138805
0.00030104989
0.00033330936
0.00036798952
0.00040552057
0.00044753042
0.00049834643
0.0005197641
0.00018612152
0.00019199231
0.00020437081
0.00022228716
0.00024493485
0.00027147509
0.00030114699
0.00033340752
0.00036807997
0.00040559586
0.00044758495
0.00049837642
0.00051976688
0.00018612595
0.00019200578
0.0002044018
0.00022233969
0.00024500822
0.00027156445
0.00030124475
0.00033350503
0.00036816896
0.0004056694
0.00044763802
0.00049840576
0.0005197706
0.00018613884
0.00019202715
0.00020443954
0.00022239738
0.00024508496
0.00027165539
0.00030134253
0.00033360137
0.00036825608
0.00040574093
0.00044768943
0.0004984343
0.00051977514
0.00018615931
0.00019205555
0.00020448318
0.00022245943
0.00024516431
0.00027174722
0.00030143973
0.00033369608
0.00036834101
0.00040581019
0.00044773902
0.00049846195
0.0005197804
0.00018618654
0.00019209017
0.00020453191
0.00022252505
0.00024524554
0.00027183933
0.00030153585
0.00033378876
0.00036842343
0.000405877
0.00044778668
0.00049848862
0.00051978626
0.00018621975
0.00019213022
0.00020458496
0.00022259354
0.00024532802
0.00027193114
0.00030163042
0.00033387905
0.00036850311
0.00040594118
0.00044783229
0.00049851417
0.00051979264
0.0001862582
0.00019217497
0.00020464165
0.00022266422
0.00024541115
0.00027202216
0.00030172304
0.00033396666
0.00036857984
0.00040600263
0.00044787578
0.00049853841
0.00051979943
0.0001863012
0.00019222374
0.00020470131
0.00022273651
0.00024549441
0.00027211195
0.00030181339
0.00033405135
0.00036865347
0.00040606124
0.00044791703
0.00049856131
0.00051980655
0.00018634808
0.0001922759
0.00020476334
0.00022280985
0.00024557731
0.00027220012
0.00030190116
0.00033413293
0.0003687239
0.00040611696
0.00044795599
0.00049858289
0.00051981393
0.00018639826
0.00019233086
0.00020482719
0.00022288375
0.00024565945
0.00027228635
0.00030198613
0.00033421125
0.00036879104
0.00040616972
0.00044799261
0.00049860326
0.00051982151
0.00018645117
0.00019238807
0.00020489236
0.00022295776
0.00024574045
0.00027237036
0.0003020681
0.0003342862
0.00036885484
0.00040621948
0.00044802696
0.00049862245
0.00051982926
0.00018650628
0.00019244704
0.00020495838
0.00022303149
0.00024581999
0.0002724519
0.00030214692
0.0003343577
0.00036891522
0.0004062662
0.0004480591
0.00049864054
0.00051983712
0.00018656312
0.00019250729
0.00020502484
0.00022310456
0.00024589778
0.00027253077
0.00030222246
0.00033442565
0.00036897215
0.00040630994
0.00044808911
0.00049865754
0.00051984505
0.00018662122
0.00019256839
0.00020509132
0.00022317665
0.00024597356
0.00027260679
0.00030229461
0.00033449001
0.00036902559
0.00040635078
0.00044811705
0.00049867351
0.00051985302
0.00018668017
0.00019262994
0.00020515749
0.00022324746
0.00024604712
0.00027267982
0.00030236328
0.00033455068
0.00036907562
0.00040638878
0.00044814298
0.00049868845
0.00051986098
0.00018673956
0.00019269156
0.00020522302
0.00022331673
0.00024611826
0.00027274972
0.00030242835
0.00033460768
0.00036912228
0.00040642401
0.00044816696
0.0004987024
0.0005198689
0.00018679903
0.00019275291
0.00020528758
0.00022338421
0.00024618679
0.00027281634
0.00030248977
0.00033466105
0.00036916563
0.00040645655
0.00044818903
0.00049871537
0.00051987673
0.00018685823
0.00019281367
0.00020535092
0.00022344969
0.00024625255
0.0002728796
0.00030254754
0.00033471081
0.00036920574
0.00040648645
0.00044820927
0.00049872737
0.00051988443
0.00018691684
0.00019287353
0.00020541278
0.00022351294
0.00024631538
0.00027293942
0.00030260166
0.00033475702
0.00036924269
0.0004065138
0.00044822771
0.00049873843
0.00051989198
0.00018697457
0.00019293222
0.00020547291
0.00022357379
0.00024637518
0.00027299577
0.00030265216
0.00033479974
0.00036927654
0.00040653868
0.00044824442
0.00049874857
0.00051989933
0.00018703113
0.00019298949
0.00020553109
0.00022363209
0.00024643186
0.00027304864
0.00030269906
0.00033483903
0.00036930739
0.00040656115
0.00044825945
0.00049875779
0.00051990646
0.00018708629
0.0001930451
0.00020558716
0.0002236877
0.00024648538
0.00027309803
0.00030274242
0.00033487499
0.00036933533
0.0004065813
0.00044827285
0.00049876613
0.00051991335
0.00018713982
0.00019309886
0.00020564094
0.00022374055
0.00024653569
0.00027314396
0.00030278231
0.0003349077
0.00036936046
0.00040659924
0.00044828471
0.00049877361
0.00051991996
0.00018719153
0.00019315061
0.00020569232
0.00022379055
0.00024658279
0.00027318649
0.00030281881
0.00033493727
0.00036938289
0.00040661504
0.00044829508
0.00049878026
0.00051992628
0.00018724128
0.0001932002
0.00020574121
0.00022383767
0.0002466267
0.00027322567
0.00030285203
0.00033496382
0.00036940273
0.00040662882
0.00044830404
0.00049878612
0.0005199323
0.00018728894
0.00019324754
0.00020578754
0.00022388189
0.00024666744
0.00027326157
0.00030288206
0.00033498747
0.00036942012
0.00040664069
0.00044831167
0.00049879122
0.00051993802
0.00018733442
0.00019329254
0.00020583126
0.00022392322
0.00024670508
0.00027329431
0.00030290903
0.00033500835
0.00036943518
0.00040665076
0.00044831806
0.00049879561
0.00051994342
0.00018737764
0.00019333517
0.00020587237
0.00022396169
0.00024673968
0.00027332398
0.00030293309
0.00033502663
0.00036944806
0.00040665915
0.00044832329
0.00049879933
0.00051994852
0.00018741858
0.00019337538
0.00020591087
0.00022399733
0.00024677133
0.0002733507
0.00030295436
0.00033504243
0.00036945889
0.00040666598
0.00044832746
0.00049880245
0.00051995331