/*--------------------------------*- C++ -*----------------------------------*\
| =========                 |                                                 |
| \\      /  F ield         | OpenFOAM: The Open Source CFD Toolbox           |
|  \\    /   O peration     | Version:  2506                                  |
|   \\  /    A nd           | Website:  www.openfoam.com                      |
|    \\/     M anipulation  |                                                 |
\*---------------------------------------------------------------------------*/
FoamFile
{
    version     2.0;
    format      ascii;
    arch        "LSB;label=32;scalar=64";
    class       volScalarField;
    location    "26000/water";
    object      nut;
}
// * * * * * * * * * * * * * * * * * * * * * * * * * * * * * * * * * * * * * //

dimensions      [0 2 -1 0 0 0 0];

internalField   nonuniform List<scalar> 
2600
(
4.0562043e-05
4.0561942e-05
4.0561944e-05
4.0561981e-05
4.0561942e-05
4.0561434e-05
4.0558261e-05
4.0540002e-05
4.0435343e-05
3.98338e-05
3.6541397e-05
2.4161555e-05
1.4889524e-05
3.944741e-05
3.9447468e-05
3.944759e-05
3.9447676e-05
3.9447275e-05
3.9444342e-05
3.9428907e-05
3.9352895e-05
3.8988431e-05
3.7314814e-05
3.0763187e-05
1.7536144e-05
1.684056e-05
3.852265e-05
3.852264e-05
3.8522725e-05
3.8522528e-05
3.8520597e-05
3.8510798e-05
3.8466747e-05
3.8277827e-05
3.7500368e-05
3.454641e-05
2.5814945e-05
1.4669956e-05
1.7712619e-05
3.7742032e-05
3.774193e-05
3.7741811e-05
3.7740766e-05
3.7735283e-05
3.7711707e-05
3.7617453e-05
3.7258039e-05
3.5961308e-05
3.177518e-05
2.2061889e-05
1.3531464e-05
1.7967898e-05
3.7073562e-05
3.7073366e-05
3.7072781e-05
3.7069955e-05
3.7057916e-05
3.7011651e-05
3.6843992e-05
3.6266509e-05
3.4405655e-05
2.9188861e-05
1.9425178e-05
1.3345943e-05
1.7902414e-05
3.6493786e-05
3.6493393e-05
3.6491924e-05
3.648598e-05
3.646354e-05
3.6384687e-05
3.612226e-05
3.5294625e-05
3.2873382e-05
2.6881541e-05
1.771645e-05
1.3793839e-05
1.7689846e-05
3.5985207e-05
3.5984445e-05
3.5981496e-05
3.5970726e-05
3.5933497e-05
3.5812307e-05
3.5437992e-05
3.4343601e-05
3.1395257e-05
2.4892541e-05
1.6781972e-05
1.4727875e-05
1.7427344e-05
3.5534568e-05
3.55332e-05
3.5528007e-05
3.5510417e-05
3.5453869e-05
3.5281761e-05
3.478374e-05
3.3418009e-05
2.9989903e-05
2.3242727e-05
1.6521213e-05
1.605365e-05
1.7168093e-05
3.5131649e-05
3.5129373e-05
3.5121029e-05
3.5094485e-05
3.5014364e-05
3.4784646e-05
3.4156253e-05
3.2521766e-05
2.8667649e-05
2.1957692e-05
1.6869959e-05
1.7676047e-05
1.694009e-05
3.4768438e-05
3.47649e-05
3.4752406e-05
3.4714802e-05
3.4607522e-05
3.4315777e-05
3.3554458e-05
3.16563e-05
2.7438403e-05
2.1076946e-05
1.7774701e-05
1.9481897e-05
1.6755877e-05
3.4438571e-05
3.443338e-05
3.4415717e-05
3.4365168e-05
3.4228127e-05
3.3872266e-05
3.2977968e-05
3.0820513e-05
2.6321667e-05
2.064959e-05
1.9168672e-05
2.1348725e-05
1.6617712e-05
3.4136931e-05
3.4129689e-05
3.4105903e-05
3.4040932e-05
3.3872746e-05
3.3452766e-05
3.2426062e-05
3.0012536e-05
2.5355878e-05
2.071981e-05
2.0958175e-05
2.3166793e-05
1.6521078e-05
3.3859367e-05
3.3849701e-05
3.3819003e-05
3.3738723e-05
3.3539365e-05
3.3056856e-05
3.1897087e-05
2.923354e-05
2.4602258e-05
2.1309036e-05
2.3024753e-05
2.4858007e-05
1.6457822e-05
3.3602495e-05
3.3590098e-05
3.355197e-05
3.3456247e-05
3.3227088e-05
3.2684518e-05
3.1388405e-05
2.849355e-05
2.4138759e-05
2.2402737e-05
2.5241356e-05
2.6381456e-05
1.6418929e-05
3.3363555e-05
3.334823e-05
3.3302533e-05
3.3192135e-05
3.2935885e-05
3.2335692e-05
3.0897112e-05
2.7818121e-05
2.404436e-05
2.3946909e-05
2.7493336e-05
2.7726694e-05
1.6396422e-05
3.3140311e-05
3.3122024e-05
3.3069114e-05
3.2945826e-05
3.2666358e-05
3.2009929e-05
3.0421904e-05
2.7253061e-05
2.4379895e-05
2.5855076e-05
2.9693858e-05
2.8902281e-05
1.6384202e-05
3.2930983e-05
3.2909915e-05
3.2850758e-05
3.2717477e-05
3.2419519e-05
3.1706209e-05
2.9966345e-05
2.6863467e-05
2.5173339e-05
2.8023002e-05
3.1788479e-05
2.992586e-05
1.6378086e-05
3.27342e-05
3.2710811e-05
3.2647097e-05
3.2507877e-05
3.2196559e-05
3.1423099e-05
2.9543333e-05
2.6725088e-05
2.6414164e-05
3.0345999e-05
3.3750497e-05
3.0817909e-05
1.6375448e-05
3.254898e-05
3.2524066e-05
3.2458325e-05
3.2318371e-05
3.1998619e-05
3.1159479e-05
2.9179673e-05
2.6909996e-05
2.8056821e-05
3.2733298e-05
3.5572231e-05
3.159849e-05
1.6374764e-05
3.2374714e-05
3.234948e-05
3.2285189e-05
3.2150777e-05
3.1826588e-05
3.0916123e-05
2.8918576e-05
2.7471843e-05
3.0030668e-05
3.5115837e-05
3.725682e-05
3.2285749e-05
1.6375224e-05
3.2211173e-05
3.2187303e-05
3.2128983e-05
3.2007273e-05
3.1681012e-05
3.0698309e-05
2.8817775e-05
2.8435854e-05
3.2252934e-05
3.7447138e-05
3.8812579e-05
3.2895334e-05
1.6376449e-05
3.2058522e-05
3.2038256e-05
3.199155e-05
3.1890271e-05
3.1562235e-05
3.0519241e-05
2.8942308e-05
2.9795906e-05
3.4641255e-05
3.9699503e-05
4.0249841e-05
3.3440305e-05
1.6378294e-05
3.1917349e-05
3.1903563e-05
3.1875268e-05
3.1802262e-05
3.147098e-05
3.0403414e-05
2.9353634e-05
3.1518045e-05
3.7123068e-05
4.1858568e-05
4.1579379e-05
3.3931333e-05
1.6380731e-05
3.1788707e-05
3.1784988e-05
3.1783034e-05
3.1745667e-05
3.1409596e-05
3.0388387e-05
3.009864e-05
3.354831e-05
3.9640501e-05
4.3918425e-05
4.2811635e-05
3.4377028e-05
1.6383779e-05
3.167417e-05
3.1684884e-05
3.1718215e-05
3.1722746e-05
3.1384106e-05
3.0523329e-05
3.120197e-05
3.5822336e-05
4.2151072e-05
4.5878168e-05
4.3956328e-05
3.4784309e-05
1.6387467e-05
3.1575896e-05
3.1606239e-05
3.1684577e-05
3.1735681e-05
3.1406916e-05
3.0863665e-05
3.266337e-05
3.8274449e-05
4.4625616e-05
4.7739777e-05
4.5022268e-05
3.5158735e-05
1.6391813e-05
3.1496714e-05
3.155272e-05
3.1686171e-05
3.1786996e-05
3.1499543e-05
3.146286e-05
3.4459803e-05
4.0844576e-05
4.7045142e-05
4.9506879e-05
4.6017313e-05
3.5504792e-05
1.6396824e-05
3.1440215e-05
3.1528703e-05
3.1727217e-05
3.1880503e-05
3.1694226e-05
3.2363739e-05
3.655094e-05
4.3482185e-05
4.9397842e-05
5.1183999e-05
4.6948405e-05
3.5826126e-05
1.6402494e-05
3.141085e-05
3.1539289e-05
3.1812006e-05
3.2022926e-05
3.2033144e-05
3.3591894e-05
3.8886232e-05
4.6147433e-05
5.1676796e-05
5.2776072e-05
4.7821648e-05
3.6125723e-05
1.6408802e-05
3.1414042e-05
3.1590274e-05
3.1944928e-05
3.222612e-05
3.2564565e-05
3.5152689e-05
4.1411895e-05
4.8810359e-05
5.3878395e-05
5.4288132e-05
4.8642401e-05
3.6406054e-05
1.6415722e-05
3.1456281e-05
3.1688095e-05
3.2130758e-05
3.2509434e-05
3.3336485e-05
3.7032016e-05
4.4076515e-05
5.144914e-05
5.6001304e-05
5.5725121e-05
4.9415393e-05
3.6669258e-05
1.6423221e-05
3.1545208e-05
3.183974e-05
3.2375387e-05
3.2901324e-05
3.4389416e-05
3.919998e-05
4.6834638e-05
5.404819e-05
5.8045691e-05
5.7091637e-05
5.0144338e-05
3.6914943e-05
1.6431248e-05
3.1689662e-05
3.2052668e-05
3.2687146e-05
3.3439135e-05
3.5750339e-05
4.1616208e-05
4.964833e-05
5.6596552e-05
6.0012735e-05
5.8392003e-05
5.083272e-05
3.7144918e-05
1.6439749e-05
3.1899683e-05
3.2334823e-05
3.3078703e-05
3.4166336e-05
3.7429296e-05
4.4235451e-05
5.2487181e-05
5.908667e-05
6.190423e-05
5.9630079e-05
5.1482685e-05
3.7361236e-05
1.6448668e-05
3.2186464e-05
3.2694871e-05
3.3569192e-05
3.5127402e-05
3.9419053e-05
4.7012415e-05
5.5327434e-05
6.1513492e-05
6.3722328e-05
6.0809381e-05
5.209644e-05
3.7565306e-05
1.6457958e-05
3.256228e-05
3.3142858e-05
3.4185824e-05
3.6361539e-05
4.1697445e-05
4.9905173e-05
5.8150793e-05
6.3873822e-05
6.5469381e-05
6.1933109e-05
5.2677392e-05
3.7758153e-05
1.6467586e-05
3.3040472e-05
3.3691436e-05
3.4963985e-05
3.7896935e-05
4.423142e-05
5.2877039e-05
6.0943276e-05
6.6165773e-05
6.7147564e-05
6.3002904e-05
5.3228278e-05
3.7940822e-05
1.6477531e-05
3.3635635e-05
3.4357643e-05
3.5945058e-05
3.9746984e-05
4.6981715e-05
5.5897117e-05
6.3694251e-05
6.8388435e-05
6.8759341e-05
6.4022602e-05
5.3751059e-05
3.8114082e-05
1.6487766e-05
3.4364221e-05
3.5164897e-05
3.7171972e-05
4.1909153e-05
4.990718e-05
5.8940031e-05
6.6395674e-05
7.0541378e-05
7.030567e-05
6.49954e-05
5.4247649e-05
3.8278691e-05
1.6498266e-05
3.5245719e-05
3.6144413e-05
3.8683391e-05
4.4366366e-05
5.2968084e-05
6.198518e-05
6.9041462e-05
7.2624762e-05
7.1789421e-05
6.5923883e-05
5.4719669e-05
3.8435275e-05
1.6509004e-05
3.6304392e-05
3.7335017e-05
4.0508074e-05
4.7090205e-05
5.6128216e-05
6.5015954e-05
7.1626964e-05
7.4638177e-05
7.3213274e-05
6.6810365e-05
5.5168635e-05
3.8584373e-05
1.6519955e-05
3.7571051e-05
3.8780601e-05
4.2660842e-05
5.0044952e-05
5.9355786e-05
6.8018904e-05
7.4148654e-05
7.6582492e-05
7.457972e-05
6.76569e-05
5.5595891e-05
3.872645e-05
1.6531091e-05
3.9083861e-05
4.0525223e-05
4.514098e-05
5.3191584e-05
6.2623573e-05
7.0983104e-05
7.6603207e-05
7.8458831e-05
7.5890901e-05
6.8465397e-05
5.6002625e-05
3.8861901e-05
1.6542386e-05
4.0886913e-05
4.2606863e-05
4.7933097e-05
5.6490987e-05
6.5908444e-05
7.3899522e-05
7.8988637e-05
8.0268725e-05
7.7148723e-05
6.9237554e-05
5.6389876e-05
3.8991059e-05
1.6553815e-05
4.3025777e-05
4.5051426e-05
5.1009879e-05
5.9906213e-05
6.9190863e-05
7.6760131e-05
8.1303254e-05
8.2013408e-05
7.8354953e-05
6.9974886e-05
5.675855e-05
3.9114202e-05
1.6565353e-05
4.5540365e-05
4.7868467e-05
5.4335757e-05
6.3403518e-05
7.2453908e-05
7.9558411e-05
8.3546724e-05
8.3693973e-05
7.9511135e-05
7.0678708e-05
5.710942e-05
3.923156e-05
1.6576974e-05
4.8456735e-05
5.1049467e-05
5.7870639e-05
6.6952764e-05
7.5682793e-05
8.2288872e-05
8.5718435e-05
8.5311377e-05
8.0618606e-05
7.1350144e-05
5.7443135e-05
3.9343313e-05
1.6588653e-05
5.1780154e-05
5.4568659e-05
6.1572963e-05
7.052689e-05
7.8863964e-05
8.4947837e-05
8.7817788e-05
8.6866372e-05
8.1678472e-05
7.1990132e-05
5.7760228e-05
3.9449598e-05
1.6600366e-05
5.5491412e-05
5.8385676e-05
6.5401426e-05
7.4100954e-05
8.1987215e-05
8.7531695e-05
8.9844076e-05
8.8359475e-05
8.2691604e-05
7.259942e-05
5.8061116e-05
3.9550509e-05
1.6612087e-05
5.9547282e-05
6.2448957e-05
6.9315605e-05
7.7653816e-05
8.5043683e-05
9.0036979e-05
9.1796413e-05
8.979094e-05
8.3658622e-05
7.317857e-05
5.8346106e-05
3.96461e-05
1.6623791e-05
6.3884525e-05
6.6699829e-05
7.3278232e-05
8.1167604e-05
8.8025207e-05
9.2460261e-05
9.3673688e-05
9.1160737e-05
8.4579895e-05
7.3727959e-05
5.8615399e-05
3.9736384e-05
1.6635451e-05
6.8427371e-05
7.1077099e-05
7.7255198e-05
8.4626052e-05
9.0924157e-05
9.4798078e-05
9.5474536e-05
9.2468545e-05
8.5455536e-05
7.4247777e-05
5.8869088e-05
3.9821338e-05
1.6647041e-05
7.3095532e-05
7.5520273e-05
8.1214704e-05
8.8014188e-05
9.3733324e-05
9.7046913e-05
9.7197347e-05
9.3713753e-05
8.628541e-05
7.4738036e-05
5.9107163e-05
3.9900898e-05
1.6658531e-05
7.7811224e-05
7.997226e-05
8.5127219e-05
9.1318144e-05
9.6445877e-05
9.9203221e-05
9.8840295e-05
9.4895495e-05
8.7069149e-05
7.5198579e-05
5.9329516e-05
3.9974967e-05
1.6669891e-05
8.2504248e-05
8.4381371e-05
8.8965585e-05
9.4525062e-05
9.9055375e-05
0.00010126349
0.00010040141
9.6012687e-05
8.7806182e-05
7.5629095e-05
5.9535951e-05
4.0043414e-05
1.6681087e-05
8.7114863e-05
8.8702615e-05
9.2705242e-05
9.7623113e-05
0.00010155582
0.00010322434
0.00010187865
9.7064104e-05
8.849578e-05
7.6029145e-05
5.9726194e-05
4.0106079e-05
1.6692086e-05
9.1594781e-05
9.2898335e-05
9.6324504e-05
0.00010060159
0.00010394177
0.00010508263
0.00010327005
9.8048462e-05
8.9137116e-05
7.6398202e-05
5.9899916e-05
4.0162784e-05
1.670285e-05
9.5906828e-05
9.6938279e-05
9.9804812e-05
0.00010345103
0.00010620842
0.00010683561
0.0001045738
9.8964519e-05
8.9729337e-05
7.6735693e-05
6.0056754e-05
4.0213337e-05
1.6713339e-05
0.00010002381
0.00010079923
0.00010313088
0.0001061634
0.00010835175
0.00010848101
0.00010578839
9.9811186e-05
9.0271646e-05
7.7041058e-05
6.0196345e-05
4.025755e-05
1.6723513e-05
0.00010392706
0.00010446437
0.00010629074
0.00010873217
0.00011036858
0.00011001715
0.00010691274
0.00010058762
9.0763384e-05
7.7313802e-05
6.0318359e-05
4.0295251e-05
1.673333e-05
0.00010760491
0.00010792242
0.00010927561
0.00011115241
0.00011225671
0.00011144303
0.00010794623
0.00010129334
9.1204111e-05
7.7553559e-05
6.0422536e-05
4.0326299e-05
1.674275e-05
0.00011105129
0.00011116686
0.00011207971
0.00011342084
0.00011401491
0.0001127584
0.00010888885
0.00010192827
9.1593674e-05
7.7760144e-05
6.0508715e-05
4.0350599e-05
1.6751732e-05
0.00011426451
0.00011419504
0.00011469998
0.00011553573
0.00011564295
0.00011396373
0.00010974117
0.0001024928
9.1932263e-05
7.7933599e-05
6.0576872e-05
4.0368116e-05
1.6760239e-05
0.00011724628
0.00011700747
0.00011713574
0.00011749687
0.00011714158
0.00011506027
0.00011050439
0.00010298784
9.2220444e-05
7.8074224e-05
6.0627139e-05
4.0378887e-05
1.6768238e-05
0.00012000086
0.00011960715
0.00011938837
0.00011930543
0.00011851249
0.00011604997
0.0001111803
0.00010341479
9.245918e-05
7.8182604e-05
6.0659818e-05
4.0383025e-05
1.6775701e-05
0.00012253444
0.00012199902
0.00012146096
0.0001209638
0.0001197582
0.00011693543
0.00011177127
0.00010377555
9.2649825e-05
7.8259608e-05
6.0675394e-05
4.0380724e-05
1.6782603e-05
0.00012485459
0.00012418949
0.00012335799
0.00012247547
0.00012088201
0.00011771988
0.0001122802
0.00010407246
9.2794107e-05
7.8306383e-05
6.0674524e-05
4.0372258e-05
1.6788928e-05
0.00012696989
0.00012618607
0.00012508506
0.0001238448
0.0001218879
0.00011840705
0.0001127104
0.00010430826
9.2894092e-05
7.8324337e-05
6.0658033e-05
4.0357972e-05
1.6794667e-05
0.00012888961
0.00012799705
0.00012664865
0.00012507691
0.00012278037
0.00011900111
0.00011306559
0.00010448603
9.2952144e-05
7.8315106e-05
6.0626895e-05
4.033828e-05
1.6799815e-05
0.00013062347
0.00012963128
0.00012805588
0.00012617751
0.0001235644
0.00011950657
0.0001133498
0.00010460915
9.2970873e-05
7.8280522e-05
6.0582207e-05
4.0313648e-05
1.6804378e-05
0.00013218141
0.00013109792
0.00012931432
0.00012715276
0.00012424532
0.00011992825
0.00011356727
0.00010468118
9.2953079e-05
7.822257e-05
6.0525166e-05
4.0284583e-05
1.6808364e-05
0.00013357349
0.00013240632
0.00013043184
0.00012800912
0.0001248287
0.00012027111
0.00011372242
0.00010470587
9.2901702e-05
7.8143347e-05
6.0457043e-05
4.0251624e-05
1.6811789e-05
0.00013480973
0.00013356588
0.00013141649
0.0001287533
0.00012532029
0.00012054027
0.00011381974
0.00010468703
9.281977e-05
7.8045022e-05
6.037915e-05
4.0215323e-05
1.6814673e-05
0.00013590004
0.00013458594
0.00013227637
0.00012939207
0.00012572594
0.0001207409
0.0001138638
0.00010462852
9.2710348e-05
7.7929797e-05
6.0292822e-05
4.0176235e-05
1.6817041e-05
0.00013685413
0.0001354757
0.00013301956
0.00012993227
0.00012605152
0.00012087816
0.00011385912
0.00010453418
9.2576493e-05
7.7799871e-05
6.0199385e-05
4.0134909e-05
1.6818921e-05
0.00013768148
0.00013624418
0.00013365401
0.00013038069
0.00012630285
0.00012095715
0.00011381018
0.00010440781
9.2421221e-05
7.7657409e-05
6.0100138e-05
4.0091878e-05
1.6820344e-05
0.00013839127
0.00013690012
0.00013418753
0.00013074401
0.00012648568
0.00012098291
0.00011372135
0.00010425309
9.2247467e-05
7.750451e-05
5.9996334e-05
4.0047645e-05
1.6821343e-05
0.00013899234
0.00013745199
0.00013462771
0.00013102876
0.00012660564
0.00012096034
0.00011359689
0.00010407361
9.2058063e-05
7.7343192e-05
5.9889165e-05
4.0002687e-05
1.682195e-05
0.0001394932
0.00013790795
0.00013498188
0.0001312413
0.00012666819
0.00012089416
0.00011344088
0.0001038728
9.1855709e-05
7.7175365e-05
5.9779751e-05
3.9957439e-05
1.6822201e-05
0.00013990199
0.00013827579
0.00013525712
0.00013138776
0.00012667861
0.00012078894
0.00011325725
0.00010365392
9.164296e-05
7.7002822e-05
5.9669127e-05
3.9912301e-05
1.6822129e-05
0.00014022646
0.00013856297
0.0001354602
0.00013147404
0.00012664197
0.00012064904
0.00011304971
0.00010342006
9.142221e-05
7.6827225e-05
5.9558241e-05
3.9867627e-05
1.6821768e-05
0.00014047398
0.00013877659
0.00013559756
0.00013150577
0.00012656312
0.00012047862
0.00011282179
0.0001031741
9.1195684e-05
7.6650103e-05
5.9447948e-05
3.982373e-05
1.6821151e-05
0.00014065152
0.00013892337
0.00013567535
0.00013148834
0.00012644665
0.0001202816
0.00011257681
0.00010291875
9.0965434e-05
7.6472841e-05
5.933901e-05
3.9780882e-05
1.6820309e-05
0.00014076568
0.00013900965
0.00013569938
0.00013142683
0.00012629694
0.00012006169
0.00011231786
0.0001026565
9.0733336e-05
7.6296689e-05
5.9232096e-05
3.9739311e-05
1.6819271e-05
0.00014082268
0.00013904145
0.00013567515
0.00013132606
0.00012611812
0.00011982237
0.00011204782
0.00010238964
9.0501091e-05
7.6122758e-05
5.9127786e-05
3.9699208e-05
1.6818067e-05
0.00014082835
0.00013902439
0.00013560783
0.00013119057
0.00012591406
0.00011956691
0.00011176937
0.00010212029
9.0270227e-05
7.5952011e-05
5.9026528e-05
3.9660512e-05
1.681672e-05
0.00014078818
0.00013896376
0.00013550229
0.00013102465
0.00012568839
0.00011929833
0.00011148498
0.00010185034
9.0042096e-05
7.5785271e-05
5.8928676e-05
3.9623175e-05
1.6815252e-05
0.00014070729
0.00013886453
0.00013536307
0.00013083228
0.00012544453
0.00011901944
0.00011119688
0.00010158151
8.9817873e-05
7.5623177e-05
5.883425e-05
3.9587487e-05
1.6813683e-05
0.00014059048
0.00013873132
0.00013519443
0.0001306172
0.00012518562
0.00011873284
0.00011090715
0.00010131533
8.9598585e-05
7.5466311e-05
5.8743594e-05
3.9553572e-05
1.6812032e-05
0.00014044221
0.00013856845
0.00013500036
0.0001303829
0.00012491461
0.00011844092
0.00011061763
0.00010105312
8.9385029e-05
7.53148e-05
5.8657143e-05
3.9521525e-05
1.6810319e-05
0.00014026662
0.00013837992
0.00013478453
0.00013013261
0.0001246342
0.00011814585
0.00011032997
0.00010079604
8.917784e-05
7.5169345e-05
5.8575047e-05
3.9491397e-05
1.6808564e-05
0.00014006757
0.00013816946
0.00013455038
0.00012986932
0.00012434688
0.00011784961
0.00011004566
0.00010054508
8.8977569e-05
7.5030413e-05
5.8497436e-05
3.9463223e-05
1.6806783e-05
0.00013984861
0.00013794051
0.00013430106
0.00012959578
0.00012405493
0.00011755397
0.00010976594
0.00010030088
8.8785022e-05
7.4898254e-05
5.8424393e-05
3.9437015e-05
1.6804992e-05
0.00013961303
0.00013769624
0.00013403949
0.00012931452
0.0001237604
0.00011726047
0.00010949184
0.00010006442
8.8600672e-05
7.4773049e-05
5.8355958e-05
3.9412767e-05
1.6803205e-05
0.00013936384
0.00013743955
0.00013376832
0.00012902783
0.00012346514
0.00011697049
0.00010922436
9.9836478e-05
8.8424864e-05
7.4654916e-05
5.8292129e-05
3.9390452e-05
1.6801434e-05
0.0001391038
0.00013717312
0.00013349001
0.00012873779
0.00012317077
0.00011668517
0.0001089646
9.9617606e-05
8.8257852e-05
7.4543909e-05
5.8232869e-05
3.9370029e-05
1.6799689e-05
0.00013883543
0.00013689937
0.00013320672
0.00012844622
0.00012287868
0.00011640584
0.00010871334
9.940824e-05
8.8099804e-05
7.4440026e-05
5.817811e-05
3.9351444e-05
1.6797978e-05
0.000138561
0.00013662046
0.00013292039
0.00012815473
0.00012259039
0.00011613354
0.00010847123
9.9208708e-05
8.7950807e-05
7.4343217e-05
5.8127754e-05
3.9334634e-05
1.679631e-05
0.00013828253
0.00013633833
0.00013263282
0.00012786501
0.00012230717
0.00011586917
0.00010823881
9.9019243e-05
8.7810883e-05
7.4253384e-05
5.8081682e-05
3.9319527e-05
1.679469e-05
0.00013800187
0.00013605478
0.00013234571
0.00012757849
0.00012203015
0.00011561348
0.0001080165
9.8839992e-05
8.7679991e-05
7.4170394e-05
5.8039758e-05
3.9306047e-05
1.6793123e-05
0.00013772072
0.00013577149
0.00013206059
0.00012729646
0.00012176029
0.0001153671
0.00010780461
9.8671024e-05
8.7558037e-05
7.409408e-05
5.8001827e-05
3.9294113e-05
1.6791614e-05
0.00013744065
0.00013548997
0.00013177884
0.00012702006
0.00012149842
0.00011513053
0.00010760337
9.8512339e-05
8.7444879e-05
7.4024251e-05
5.7967727e-05
3.9283643e-05
1.6790166e-05
0.00013716306
0.0001352116
0.00013150169
0.00012675028
0.00012124524
0.0001149042
0.00010741292
9.8363879e-05
8.7340338e-05
7.3960692e-05
5.7937286e-05
3.9274552e-05
1.6788782e-05
0.00013688925
0.00013493758
0.00013123022
0.00012648799
0.00012100136
0.00011468841
0.00010723333
9.822553e-05
8.72442e-05
7.3903172e-05
5.7910327e-05
3.9266758e-05
1.6787463e-05
0.00013662033
0.000134669
0.00013096538
0.00012623394
0.00012076727
0.00011448339
0.00010706461
9.8097133e-05
8.7156222e-05
7.3851447e-05
5.7886668e-05
3.9260178e-05
1.6786211e-05
0.00013635734
0.00013440684
0.00013070802
0.00012598877
0.00012054335
0.0001142893
0.00010690669
9.7978486e-05
8.7076139e-05
7.3805262e-05
5.7866129e-05
3.925473e-05
1.6785026e-05
0.00013610116
0.00013415192
0.00013045885
0.000125753
0.00012032993
0.0001141062
0.00010675946
9.7869353e-05
8.7003663e-05
7.3764355e-05
5.7848528e-05
3.9250335e-05
1.6783909e-05
0.00013585256
0.00013390499
0.00013021849
0.00012552708
0.00012012721
0.00011393413
0.00010662277
9.7769466e-05
8.6938493e-05
7.3728458e-05
5.7833682e-05
3.9246916e-05
1.6782859e-05
0.00013561223
0.00013366666
0.00012998745
0.00012531135
0.00011993534
0.00011377301
0.00010649641
9.7678529e-05
8.6880313e-05
7.3697302e-05
5.7821412e-05
3.9244397e-05
1.6781877e-05
0.00013538071
0.00013343745
0.00012976615
0.00012510607
0.0001197544
0.00011362275
0.00010638013
9.7596224e-05
8.6828797e-05
7.3670614e-05
5.7811542e-05
3.9242705e-05
1.6780961e-05
0.00013515848
0.00013321779
0.00012955492
0.00012491143
0.00011958439
0.0001134832
0.00010627367
9.7522213e-05
8.6783613e-05
7.3648122e-05
5.7803898e-05
3.9241771e-05
1.6780111e-05
0.0001349459
0.00013300801
0.000129354
0.00012472753
0.00011942526
0.00011335415
0.00010617671
9.7456142e-05
8.674442e-05
7.3629557e-05
5.779831e-05
3.9241526e-05
1.6779324e-05
0.00013474327
0.00013280837
0.00012916357
0.0001245544
0.00011927691
0.00011323535
0.00010608892
9.7397644e-05
8.6710878e-05
7.361465e-05
5.7794614e-05
3.9241906e-05
1.67786e-05
0.00013455079
0.00013261904
0.0001289837
0.00012439202
0.00011913916
0.00011312654
0.00010600993
9.7346339e-05
8.6682643e-05
7.3603139e-05
5.7792647e-05
3.9242847e-05
1.6777936e-05
0.00013436858
0.0001324401
0.00012881443
0.00012424031
0.00011901182
0.00011302739
0.00010593939
9.7301844e-05
8.6659372e-05
7.3594763e-05
5.7792256e-05
3.9244291e-05
1.6777331e-05
0.00013419669
0.0001322716
0.00012865571
0.00012409912
0.00011889462
0.00011293756
0.00010587689
9.7263768e-05
8.6640726e-05
7.3589269e-05
5.7793288e-05
3.9246179e-05
1.6776782e-05
0.00013403512
0.00013211349
0.00012850745
0.00012396826
0.00011878729
0.00011285669
0.00010582203
9.7231718e-05
8.6626368e-05
7.3586411e-05
5.7795601e-05
3.9248458e-05
1.6776288e-05
0.0001338838
0.00013196567
0.0001283695
0.0001238475
0.0001186895
0.00011278439
0.0001057744
9.7205303e-05
8.6615967e-05
7.3585949e-05
5.7799053e-05
3.9251075e-05
1.6775845e-05
0.00013374261
0.00013182802
0.00012824165
0.00012373658
0.00011860091
0.00011272027
0.00010573359
9.7184134e-05
8.6609203e-05
7.3587651e-05
5.7803514e-05
3.9253981e-05
1.6775451e-05
0.00013361138
0.00013170034
0.00012812369
0.00012363519
0.00011852116
0.00011266392
0.00010569918
9.716783e-05
8.6605761e-05
7.3591297e-05
5.7808856e-05
3.925713e-05
1.6775104e-05
0.00013348992
0.00013158241
0.00012801534
0.00012354302
0.00011844986
0.00011261491
0.00010567075
9.7156018e-05
8.6605341e-05
7.3596677e-05
5.7814963e-05
3.9260479e-05
1.6774801e-05
0.00013337798
0.00013147398
0.00012791632
0.00012345971
0.00011838663
0.00011257285
0.00010564791
9.7148338e-05
8.6607656e-05
7.3603591e-05
5.7821726e-05
3.9263989e-05
1.677454e-05
0.00013327531
0.00013137478
0.00012782631
0.00012338492
0.00011833107
0.00011253731
0.00010563025
9.7144442e-05
8.6612432e-05
7.3611855e-05
5.7829041e-05
3.9267623e-05
1.6774317e-05
0.00013318163
0.0001312845
0.00012774499
0.00012331827
0.00011828277
0.00011250789
0.00010561739
9.7143998e-05
8.6619411e-05
7.3621295e-05
5.7836817e-05
3.927135e-05
1.6774131e-05
0.00013309663
0.00013120284
0.00012767202
0.00012325939
0.00011824136
0.00011248419
0.00010560897
9.714669e-05
8.6628352e-05
7.363175e-05
5.7844969e-05
3.9275141e-05
1.6773979e-05
0.00013302001
0.00013112947
0.00012760704
0.00012320792
0.00011820642
0.00011246583
0.00010560462
9.7152219e-05
8.6639029e-05
7.3643074e-05
5.785342e-05
3.9278971e-05
1.6773858e-05
0.00013295144
0.00013106405
0.0001275497
0.00012316345
0.00011817758
0.00011245242
0.000105604
9.7160298e-05
8.6651227e-05
7.3655129e-05
5.7862102e-05
3.9282819e-05
1.6773768e-05
0.00013289058
0.00013100624
0.00012749963
0.00012312563
0.00011815444
0.00011244359
0.00010560678
9.7170656e-05
8.6664746e-05
7.3667786e-05
5.7870948e-05
3.9286664e-05
1.6773704e-05
0.00013283708
0.00013095568
0.00012745647
0.00012309405
0.00011813662
0.00011243898
0.00010561264
9.7183032e-05
8.6679397e-05
7.3680927e-05
5.7879901e-05
3.9290489e-05
1.6773667e-05
0.00013279059
0.000130912
0.00012741984
0.00012306834
0.00011812374
0.00011243824
0.00010562127
9.7197176e-05
8.6694996e-05
7.3694436e-05
5.7888903e-05
3.9294276e-05
1.6773653e-05
0.00013275072
0.00013087483
0.00012738933
0.00012304811
0.00011811543
0.00011244101
0.00010563236
9.7212845e-05
8.6711369e-05
7.3708205e-05
5.78979e-05
3.9298008e-05
1.6773661e-05
0.00013271709
0.00013084377
0.00012736458
0.00012303295
0.00011811129
0.00011244695
0.00010564563
9.7229806e-05
8.672835e-05
7.372213e-05
5.7906841e-05
3.9301671e-05
1.6773688e-05
0.00013268931
0.00013081843
0.00012734517
0.00012302249
0.00011811097
0.00011245571
0.00010566077
9.7247834e-05
8.6745777e-05
7.3736113e-05
5.7915677e-05
3.9305247e-05
1.6773733e-05
0.000132667
0.00013079841
0.00012733072
0.00012301633
0.00011811408
0.00011246699
0.00010567753
9.7266714e-05
8.67635e-05
7.3750057e-05
5.7924361e-05
3.9308721e-05
1.6773794e-05
0.00013264974
0.00013078332
0.00012732082
0.00012301408
0.00011812029
0.00011248045
0.00010569563
9.7286242e-05
8.6781375e-05
7.3763878e-05
5.793285e-05
3.931208e-05
1.6773869e-05
0.00013263715
0.00013077277
0.00012731509
0.00012301539
0.00011812924
0.0001124958
0.00010571483
9.7306232e-05
8.6799273e-05
7.3777497e-05
5.7941106e-05
3.931531e-05
1.6773955e-05
0.00013262885
0.00013076638
0.00012731315
0.00012301989
0.00011814061
0.00011251275
0.0001057349
9.7326511e-05
8.6817078e-05
7.3790848e-05
5.7949099e-05
3.9318402e-05
1.6774051e-05
0.00013262448
0.00013076378
0.00012731466
0.00012302724
0.0001181541
0.00011253105
0.00010575563
9.7346927e-05
8.6834689e-05
7.3803871e-05
5.7956802e-05
3.9321339e-05
1.6774156e-05
0.00013262368
0.00013076463
0.00012731927
0.00012303714
0.00011816942
0.00011255047
0.00010577683
9.7367346e-05
8.6852021e-05
7.3816521e-05
5.7964192e-05
3.9324098e-05
1.6774267e-05
0.00013262615
0.00013076861
0.00012732668
0.00012304928
0.00011818631
0.00011257078
0.00010579836
9.7387654e-05
8.6869001e-05
7.3828757e-05
5.7971241e-05
3.9326692e-05
1.6774382e-05
0.00013263157
0.00013077542
0.00012733659
0.0001230634
0.00011820456
0.0001125918
0.00010582005
9.7407752e-05
8.6885572e-05
7.3840553e-05
5.7977939e-05
3.9329129e-05
1.6774501e-05
0.00013263967
0.00013078478
0.00012734873
0.00012307926
0.00011822393
0.00011261335
0.00010584179
9.7427559e-05
8.6901684e-05
7.3851871e-05
5.7984304e-05
3.9331416e-05
1.6774623e-05
0.00013265019
0.00013079643
0.00012736286
0.00012309663
0.00011824425
0.0001126353
0.00010586346
9.7447004e-05
8.69173e-05
7.3862708e-05
5.7990336e-05
3.9333555e-05
1.6774747e-05
0.00013266289
0.00013081014
0.00012737876
0.00012311531
0.00011826533
0.00011265749
0.00010588497
9.746602e-05
8.6932366e-05
7.3873068e-05
5.7996039e-05
3.9335556e-05
1.6774873e-05
0.00013267754
0.00013082568
0.0001273962
0.0001231351
0.00011828702
0.00011267981
0.00010590623
9.7484542e-05
8.6946876e-05
7.3882941e-05
5.8001416e-05
3.933742e-05
1.6774999e-05
0.00013269391
0.00013084283
0.00012741497
0.00012315581
0.00011830915
0.00011270213
0.00010592715
9.750252e-05
8.6960814e-05
7.3892326e-05
5.8006473e-05
3.9339156e-05
1.6775126e-05
0.00013271179
0.00013086138
0.00012743488
0.00012317726
0.00011833158
0.00011272434
0.00010594763
9.7519923e-05
8.6974162e-05
7.390122e-05
5.8011215e-05
3.9340768e-05
1.6775253e-05
0.00013273097
0.00013088111
0.00012745573
0.00012319929
0.00011835417
0.00011274631
0.00010596762
9.7536713e-05
8.6986902e-05
7.3909621e-05
5.8015648e-05
3.934226e-05
1.6775379e-05
0.00013275122
0.00013090182
0.00012747732
0.0001232217
0.00011837675
0.00011276794
0.00010598706
9.7552855e-05
8.6999022e-05
7.3917531e-05
5.8019776e-05
3.9343635e-05
1.6775504e-05
0.00013277232
0.0001309233
0.00012749946
0.00012324434
0.00011839921
0.00011278916
0.00010600589
9.7568316e-05
8.7010509e-05
7.3924948e-05
5.8023605e-05
3.9344898e-05
1.6775628e-05
0.00013279408
0.00013094534
0.00012752195
0.00012326704
0.00011842142
0.00011280988
0.00010602406
9.7583068e-05
8.7021353e-05
7.3931876e-05
5.802714e-05
3.9346051e-05
1.6775749e-05
0.00013281627
0.00013096773
0.00012754461
0.00012328965
0.00011844327
0.00011283001
0.00010604151
9.7597086e-05
8.7031549e-05
7.3938316e-05
5.8030385e-05
3.9347098e-05
1.6775867e-05
0.00013283868
0.00013099028
0.00012756728
0.00012331204
0.00011846465
0.00011284948
0.0001060582
9.7610352e-05
8.7041091e-05
7.3944272e-05
5.8033347e-05
3.934804e-05
1.6775982e-05
0.00013286115
0.00013101283
0.00012758979
0.00012333408
0.00011848547
0.00011286824
0.0001060741
9.7622848e-05
8.7049978e-05
7.3949751e-05
5.8036032e-05
3.934888e-05
1.6776094e-05
0.00013288348
0.0001310352
0.00012761202
0.00012335565
0.00011850565
0.00011288621
0.00010608918
9.7634567e-05
8.7058215e-05
7.3954761e-05
5.8038447e-05
3.9349622e-05
1.6776201e-05
0.00013290555
0.00013105726
0.00012763382
0.00012337665
0.00011852511
0.00011290337
0.00010610341
9.7645505e-05
8.7065808e-05
7.3959313e-05
5.8040601e-05
3.9350269e-05
1.6776304e-05
0.0001329272
0.00013107888
0.00012765509
0.00012339699
0.00011854379
0.00011291967
0.00010611679
9.7655666e-05
8.707277e-05
7.396342e-05
5.8042504e-05
3.9350825e-05
1.6776402e-05
0.00013294834
0.00013109995
0.00012767574
0.00012341661
0.00011856164
0.0001129351
0.00010612931
9.7665061e-05
8.7079117e-05
7.39671e-05
5.8044168e-05
3.9351294e-05
1.6776495e-05
0.00013296887
0.00013112039
0.0001276957
0.00012343544
0.00011857864
0.00011294964
0.00010614098
9.7673706e-05
8.7084871e-05
7.3970372e-05
5.8045606e-05
3.9351681e-05
1.6776583e-05
0.00013298872
0.00013114013
0.0001277149
0.00012345345
0.00011859476
0.00011296329
0.0001061518
9.7681623e-05
8.7090056e-05
7.3973258e-05
5.8046832e-05
3.9351993e-05
1.6776666e-05
0.00013300784
0.00013115911
0.0001277333
0.00012347061
0.00011860998
0.00011297605
0.00010616181
9.7688839e-05
8.70947e-05
7.397578e-05
5.8047864e-05
3.9352237e-05
1.6776744e-05
0.00013302619