/*--------------------------------*- C++ -*----------------------------------*\
| =========                 |                                                 |
| \\      /  F ield         | OpenFOAM: The Open Source CFD Toolbox           |
|  \\    /   O peration     | Version:  2506                                  |
|   \\  /    A nd           | Website:  www.openfoam.com                      |
|    \\/     M anipulation  |                                                 |
\*---------------------------------------------------------------------------*/
FoamFile
{
    version     2.0;
    format      ascii;
    arch        "LSB;label=32;scalar=64";
    class       surfaceScalarField;
    location    "26000/water";
    object      phi;
}
// * * * * * * * * * * * * * * * * * * * * * * * * * * * * * * * * * * * * * //

dimensions      [1 0 -1 0 0 0 0];

oriented        oriented;

internalField   nonuniform List<scalar> 
4987
(
-6.9167736e-06
0.00085760419
-2.7656569e-05
0.0024926737
-6.1431121e-05
0.0040117068
-0.0001075903
0.0054211695
-0.00016565319
0.0067272392
-0.00023525167
0.0079357375
-0.00031606519
0.0090521266
-0.00040763483
0.010081416
-0.00050867084
0.011027654
-0.00061447105
0.011892066
-0.00070641237
0.012665127
-0.00069017742
0.01327532
0.013255156
-6.4252098e-06
0.00086402939
-2.4701717e-05
0.0025109502
-5.3973207e-05
0.0040409782
-9.3433184e-05
0.0054606295
-0.00014227852
0.0067760845
-0.00019970621
0.0079931652
-0.00026484255
0.0091172629
-0.00033648012
0.010153054
-0.00041221923
0.011103393
-0.00048568429
0.011965531
-0.00053558126
0.012715024
-0.00047144624
0.013211185
0.01278371
-6.1639689e-06
0.00087019336
-2.380905e-05
0.0025285953
-5.2164898e-05
0.0040693341
-9.0528703e-05
0.0054989933
-0.00013822172
0.0068237776
-0.00019455674
0.0080495002
-0.00025870612
0.0091814123
-0.00032929751
0.010223645
-0.00040329175
0.011177387
-0.0004727614
0.012035
-0.00051220841
0.012754471
-0.00042242592
0.013121403
0.012361284
-6.1054146e-06
0.00087629878
-2.3924376e-05
0.0025464143
-5.2620538e-05
0.0040980303
-9.1395558e-05
0.0055377683
-0.00013947504
0.006871857
-0.00019604176
0.0081060669
-0.00026004543
0.009245416
-0.00032969289
0.010293293
-0.00040116834
0.011248863
-0.00046497904
0.012098811
-0.00049117541
0.012780667
-0.00037835998
0.013008587
0.011982924
-5.9919784e-06
0.00088229076
-2.3432324e-05
0.0025638546
-5.1502783e-05
0.0041261007
-8.9417765e-05
0.0055756833
-0.0001363976
0.0069188369
-0.00019157934
0.0081612487
-0.00025377584
0.0093076125
-0.0003208868
0.010360404
-0.00038849227
0.011316468
-0.0004456482
0.012155967
-0.00045837524
0.012793394
-0.00033102689
0.012881239
0.011651897
-5.8197985e-06
0.00088811056
-2.2720415e-05
0.0025807553
-4.9911333e-05
0.0041532916
-8.6629801e-05
0.0056124017
-0.00013209822
0.0069643053
-0.00018540983
0.0082145603
-0.00024524283
0.0093674455
-0.00030921061
0.010424371
-0.00037232044
0.011379578
-0.00042207813
0.012205725
-0.00042081904
0.012792135
-0.00028517408
0.012745594
0.011366723
-5.6148952e-06
0.00089372545
-2.1923414e-05
0.0025970638
-4.8158186e-05
0.0041795264
-8.35701e-05
0.0056478136
-0.00012737381
0.007008109
-0.00017860877
0.0082657952
-0.00023581604
0.0094246528
-0.00029633568
0.010484891
-0.00035458539
0.011437828
-0.00039630862
0.012247448
-0.00038067559
0.012776502
-0.00024201049
0.012606929
0.011124713
-5.4046946e-06
0.00089913014
-2.1106786e-05
0.0026127659
-4.6361915e-05
0.0042047815
-8.0433153e-05
0.0056818849
-0.00012252438
0.0070502002
-0.00017161842
0.0083148893
-0.0002261212
0.0094791555
-0.00028309872
0.010541869
-0.00033629459
0.011491024
-0.00036936757
0.012280521
-0.00033930313
0.012746438
-0.00020218079
0.012469807
0.010922532
-5.2040372e-06
0.00090433418
-2.0322449e-05
0.0026278843
-4.4632486e-05
0.0042290916
-7.7407183e-05
0.0057146596
-0.000117836
0.007090629
-0.00016484161
0.0083618949
-0.00021669175
0.0095310057
-0.00027015443
0.010595331
-0.00031814583
0.011539015
-0.00034189245
0.012304267
-0.00029797663
0.012702522
-0.00016629141
0.012338121
0.010756241
-5.0193754e-06
0.00090935356
-1.9599432e-05
0.0026424643
-4.3036007e-05
0.0042525281
-7.460817e-05
0.0057462317
-0.00011348606
0.0071295069
-0.00015852682
0.0084069356
-0.0002078498
0.0095803287
-0.00025787593
0.010645357
-0.00030047882
0.011581618
-0.00031421626
0.012318005
-0.00025799659
0.012646302
-0.00013488813
0.012215013
0.010621352
-4.8544122e-06
0.00091420797
-1.8953518e-05
0.0026565634
-4.1607992e-05
0.0042751826
-7.2098328e-05
0.0057767221
-0.00010956978
0.0071669784
-0.00015280648
0.0084501723
-0.00019976083
0.009627283
-0.00024643025
0.010692027
-0.00028338283
0.01161857
-0.00028657101
0.012321193
-0.00022065196
0.012580383
-0.00010831397
0.012102675
0.010513039
-4.7104907e-06
0.00091891846
-1.838964e-05
0.0026702426
-4.0359024e-05
0.004297152
-6.9895773e-05
0.0058062588
-0.00010611414
0.0072031967
-0.00014771517
0.0084917734
-0.00019245611
0.0096720239
-0.00023580475
0.010735375
-0.00026674607
0.011649512
-0.0002592037
0.012313651
-0.00018698908
0.012508168
-8.6549227e-05
0.012002235
0.010426489
-4.5864894e-06
0.00092350495
-1.7903118e-05
0.0026835592
-3.9278552e-05
0.0043185274
-6.7981782e-05
0.0058349621
-0.00010308929
0.0072383042
-0.0001432058
0.0085318899
-0.00018585427
0.0097146724
-0.00022583645
0.010775358
-0.0002503233
0.011673999
-0.00023244678
0.012295774
-0.00015760688
0.012433329
-6.91952e-05
0.011913823
0.010357294
-4.4797101e-06
0.00092798466
-1.7483378e-05
0.0026965629
-3.8343222e-05
0.0043393873
-6.6315361e-05
0.0058629342
-0.00010043089
0.0072724198
-0.00013918123
0.0085706402
-0.00017980338
0.0097552946
-0.00021627053
0.010811825
-0.0002338457
0.011691574
-0.00020673153
0.01226866
-0.0001326094
0.012359206
-5.560311e-05
0.011836817
0.010301691
-4.3869483e-06
0.00093237161
-1.7117944e-05
0.0027092939
-3.7525518e-05
0.0043597948
-6.4848149e-05
0.0058902568
-9.8062774e-05
0.0073056344
-0.00013552609
0.0086081035
-0.00017412332
0.0097938918
-0.00020682319
0.010844525
-0.00021713162
0.011701882
-0.00018252416
0.012234052
-0.00011170491
0.012288387
-4.5044662e-05
0.011770157
0.010256646
-4.3051908e-06
0.0009366768
-1.6795059e-05
0.0027217838
-3.6799451e-05
0.0043797992
-6.3534222e-05
0.0059169916
-9.5911854e-05
0.007338012
-0.0001321276
0.0086443193
-0.00016863371
0.0098303979
-0.0001972305
0.010873121
-0.00020015794
0.01170481
-0.00016022091
0.012194115
-9.4372498e-05
0.012222539
-3.683883e-05
0.011712623
0.010219807
-4.2319149e-06
0.00094090871
-1.6504851e-05
0.0027340567
-3.6143083e-05
0.0043994375
-6.2334437e-05
0.005943183
-9.3914664e-05
0.0073695922
-0.00012888455
0.0086792892
-0.00016316714
0.0098646805
-0.00018728236
0.010897237
-0.00018307195
0.011700599
-0.00014006425
0.012151108
-8.0017937e-05
0.012162492
-3.0412516e-05
0.011663018
0.010189395
-4.1651417e-06
0.00094507386
-1.6239539e-05
0.0027461311
-3.5538992e-05
0.0044187369
-6.1217188e-05
0.0059688612
-9.2018423e-05
0.0074003935
-0.00012570858
0.0087129793
-0.00015757395
0.0098965459
-0.00017684647
0.010916509
-0.00016614712
0.0116899
-0.0001221172
0.012107078
-6.8078234e-05
0.012108453
-2.531302e-05
0.011620253
0.010164082
-4.1033745e-06
0.00094917723
-1.5993201e-05
0.0027580209
-3.4973725e-05
0.0044377174
-6.0157433e-05
0.0059940449
-9.0179431e-05
0.0074304155
-0.00012252186
0.0087453218
-0.00015172468
0.0099257487
-0.00016588459
0.010930669
-0.00014970628
0.011673722
-0.00010629216
0.012063664
-5.8071502e-05
0.012060233
-2.1196905e-05
0.011583378
0.010142885
-4.0454971e-06
0.00095322273
-1.5761374e-05
0.0027697368
-3.4436919e-05
0.004456393
-5.9135103e-05
0.0060187431
-8.8360528e-05
0.0074596409
-0.00011925379
0.008776215
-0.00014551369
0.0099520086
-0.00015445693
0.010939612
-0.00013404492
0.01165331
-9.2406373e-05
0.012022025
-4.9608138e-05
0.012017435
-1.7811e-05
0.011551581
0.010125074
-3.9906706e-06
0.0009572134
-1.5540649e-05
0.0027812868
-3.3920385e-05
0.0044747727
-5.8133473e-05
0.0060429561
-8.6528479e-05
0.0074880359
-0.00011583835
0.0088055249
-0.00013886507
0.0099750353
-0.00014270997
0.010943457
-0.00011937991
0.01162998
-8.0236229e-05
0.011982881
-4.2382123e-05
0.01197958
-1.4972582e-05
0.011524171
0.010110101
-3.9382461e-06
0.00096115164
-1.5328322e-05
0.0027926768
-3.3417325e-05
0.0044928617
-5.713775e-05
0.0060666766
-8.4651729e-05
0.0075155499
-0.00011221299
0.0088330861
-0.00013174065
0.009994563
-0.00013084742
0.010942564
-0.000105832
0.011604964
-6.9555678e-05
0.011946605
-3.6155841e-05
0.011946181
-1.2551524e-05
0.011500567
0.01009755
-3.8876948e-06
0.00096503934
-1.512212e-05
0.0028039113
-3.2921708e-05
0.0045106613
-5.613392e-05
0.0060898888
-8.2698666e-05
0.0075421146
-0.0001083197
0.0088587072
-0.00012414736
0.010010391
-0.000119092
0.010937509
-9.3435729e-05
0.011579308
-6.0156928e-05
0.011913326
-3.0745163e-05
0.011916769
-1.0455527e-05
0.011480277
0.010087094
-3.8385568e-06
0.00096887789
-1.4919992e-05
0.0028149927
-3.2427783e-05
0.0045281691
-5.5107849e-05
0.0061125688
-8.0636493e-05
0.0075676433
-0.00010410815
0.0088821788
-0.00011614035
0.010022423
-0.0001076492
0.010929017
-8.2162746e-05
0.011553821
-5.185814e-05
0.011883022
-2.6007044e-05
0.011890918
-8.618778e-06
0.011462889
0.010078476
-3.7904017e-06
0.0009726683
-1.471995e-05
0.0028259223
-3.1929703e-05
0.0045453789
-5.4044562e-05
0.0061346837
-7.8430836e-05
0.0075920295
-9.9540734e-05
0.0089032887
-0.00010781836
0.0100307
-9.668249e-05
0.010917882
-7.1946856e-05
0.011529086
-4.4503971e-05
0.011855579
-2.1829756e-05
0.011868244
-6.9937154e-06
0.011448053
0.010071482
-3.7427998e-06
0.0009764111
-1.4519944e-05
0.0028366994
-3.1421225e-05
0.0045622801
-5.2927705e-05
0.0061561902
-7.6046253e-05
0.0076151481
-9.4598622e-05
0.0089218411
-9.9310959e-05
0.010035413
-8.6303347e-05
0.010904874
-6.270376e-05
0.011505486
-3.7963107e-05
0.011830838
-1.8125301e-05
0.011848406
-5.5452731e-06
0.011435473
0.010065937
-3.6952977e-06
0.00098010639
-1.4317762e-05
0.0028473219
-3.0895461e-05
0.0045788578
-5.1739146e-05
0.0061770339
-7.3447796e-05
0.0076368567
-8.9287309e-05
0.0089376806
-9.0760467e-05
0.010036886
-7.6573735e-05
0.010890687
-5.4343979e-05
0.011483256
-3.2124998e-05
0.011808619
-1.482363e-05
0.011831104
-4.2469612e-06
0.011424896
0.01006169
-3.6473964e-06
0.00098375379
-1.4110936e-05
0.0028577854
-3.0344641e-05
0.0045950915
-5.0458783e-05
0.006197148
-7.0603632e-05
0.0076570016
-8.3639724e-05
0.0089507167
-8.2303577e-05
0.01003555
-6.7515766e-05
0.010875899
-4.6780115e-05
0.011462521
-2.6896672e-05
0.011788736
-1.1868301e-05
0.011816076
-3.0782173e-06
0.011416106
0.010058611
-3.598529e-06
0.00098735232
-1.3896643e-05
0.0028680835
-2.9759897e-05
0.0046109548
-4.906462e-05
0.0062164527
-6.7488583e-05
0.0076754255
-7.7715065e-05
0.0089609432
-7.4057322e-05
0.010031892
-5.9123285e-05
0.010860965
-3.9930366e-05
0.011443328
-2.2199823e-05
0.011771005
-9.2132522e-06
0.011803089
-2.0226366e-06
0.011408916
0.010056589
-3.5480258e-06
0.00099090035
-1.3671565e-05
0.0028782071
-2.913095e-05
0.0046264142
-4.7533112e-05
0.0062348549
-6.4087909e-05
0.0076919803
-7.1592542e-05
0.0089684478
-6.6111084e-05
0.010026411
-5.1371378e-05
0.010846226
-3.3718974e-05
0.011425676
-1.7967104e-05
0.011755253
-6.8192021e-06
0.011791942
-1.066578e-06
0.011403163
0.010055522
-3.4951e-06
0.00099439545
-1.3431821e-05
0.0028881438
-2.8446033e-05
0.0046414284
-4.5840367e-05
0.0062522492
-6.0401305e-05
0.0077065413
-6.5362296e-05
0.0089734088
-5.8525797e-05
0.010019574
-4.4224408e-05
0.010831924
-2.8076966e-05
0.011409528
-1.4140083e-05
0.011741316
-4.6492181e-06
0.011782451
-1.692612e-07
0.011398683
0.010055353
-3.4388797e-06
0.00099783432
-1.3173132e-05
0.002897878
-2.7692441e-05
0.0046559477
-4.3964999e-05
0.0062685218
-5.6447136e-05
0.0077190234
-5.9117576e-05
0.0089760792
-5.1340523e-05
0.010011797
-3.7645607e-05
0.010818229
-2.2947528e-05
0.01139483
-1.0674837e-05
0.011729044
-2.6811677e-06
0.011774457
6.6539748e-07
0.011395337
0.010056018
-3.3783149e-06
0.0010012126
-1.2890438e-05
0.0029073902
-2.6855997e-05
0.0046699133
-4.1889315e-05
0.0062835551
-5.2260849e-05
0.0077293949
-5.2943451e-05
0.0089767618
-4.4574288e-05
0.010003428
-3.1596043e-05
0.010805251
-1.8279668e-05
0.011381514
-7.5312367e-06
0.011718295
-8.8308335e-07
0.011767809
1.404948e-06
0.011393049
0.010057423
-3.3120982e-06
0.0010045247
-1.2577617e-05
0.0029166557
-2.5921008e-05
0.0046832566
-3.9601338e-05
0.0062972354
-4.7891283e-05
0.0077376849
-4.6909603e-05
0.0089757802
-3.822931e-05
0.0099947476
-2.6033954e-05
0.010793056
-1.4024296e-05
0.011369504
-4.669563e-06
0.011708941
7.7464119e-07
0.011762365
2.0667154e-06
0.011391756
0.01005949
-3.2386927e-06
0.0010077634
-1.2227714e-05
0.0029256447
-2.4871688e-05
0.0046959006
-3.7098721e-05
0.0063094625
-4.3397672e-05
0.0077439838
-4.107082e-05
0.0089734533
-3.2299146e-05
0.0099859759
-2.0920724e-05
0.010781677
-1.0139932e-05
0.011358723
-2.0591048e-06
0.01170086
2.278024e-06
0.011758028
2.663892e-06
0.011391371
0.010062154
-3.1562771e-06
0.0010109197
-1.1832823e-05
0.0029343212
-2.3693038e-05
0.0047077608
-3.4390255e-05
0.0063201597
-3.8842816e-05
0.0077484364
-3.5466322e-05
0.0089700768
-2.6770469e-05
0.0099772801
-1.6218778e-05
0.010771126
-6.5852935e-06
0.01134909
3.4758002e-07
0.011693927
3.632312e-06
0.011754743
3.2023741e-06
0.011391801
0.010065356
-3.0627119e-06
0.0010139824
-1.1384178e-05
0.0029426427
-2.2372403e-05
0.0047187491
-3.1496501e-05
0.0063292838
-3.428735e-05
0.0077512272
-3.0121847e-05
0.0089659113
-2.1625907e-05
0.0099687841
-1.1894015e-05
0.010761394
-3.3302662e-06
0.011340526
2.5511578e-06
0.011688045
4.8617362e-06
0.011752432
3.689887e-06
0.011392972
0.010069046
-2.955534e-06
0.001016938
-1.0872488e-05
0.0029505597
-2.0901462e-05
0.004728778
-2.8448943e-05
0.0063368313
-2.9785788e-05
0.0077525641
-2.5052586e-05
0.0089611781
-1.6845446e-05
0.009960577
-7.9111881e-06
0.01075246
-3.2668817e-07
0.011332941
4.54345e-06
0.011683175
5.9754108e-06
0.011751
4.1313611e-06
0.011394816
0.010073178
-2.8319478e-06
0.0010197699
-1.0288359e-05
0.0029580161
-1.9277896e-05
0.0047377676
-2.5286899e-05
0.0063428403
-2.5383489e-05
0.0077526607
-2.026499e-05
0.0089560596
-1.2407948e-05
0.00995272
-4.2418635e-06
0.010744293
2.4380448e-06
0.011326262
6.3570234e-06
0.011679256
6.985794e-06
0.011750371
4.5313429e-06
0.011397271
0.010077709
-2.6889071e-06
0.0010224588
-9.6232115e-06
0.0029649504
-1.7507129e-05
0.0047456515
-2.205421e-05
0.0063473874
-2.111647e-05
0.0077517229
-1.5759121e-05
0.0089507023
-8.2896781e-06
0.0099452505
-8.467204e-07
0.01073685
4.9536605e-06
0.011320461
8.0064642e-06
0.011676204
7.9030546e-06
0.011750475
4.8939789e-06
0.01140028
0.010082603
-2.5232503e-06
0.0010249821
-8.870364e-06
0.0029712975
-1.5602911e-05
0.004752384
-1.8795223e-05
0.0063505797
-1.7011663e-05
0.0077499394
-1.1530738e-05
0.0089452213
-4.4700468e-06
0.0099381898
2.290919e-06
0.01073009
7.2494517e-06
0.011315503
9.5068173e-06
0.011673946
8.7353764e-06
0.011751246
5.222292e-06
0.011403793
0.010087825
-2.3319746e-06
0.001027314
-8.0264243e-06
0.0029769919
-1.3587008e-05
0.0047579446
-1.5551703e-05
0.0063525444
-1.3087803e-05
0.0077474755
-7.5700689e-06
0.0089397036
-9.1689691e-07
0.0099315366
5.16529e-06
0.010724007
9.3447915e-06
0.011311323
1.0871882e-05
0.011672419
9.4905365e-06
0.011752628
5.5192958e-06
0.011407764
0.010093344
-2.1126542e-06
0.0010294267
-7.0926599e-06
0.002981972
-1.1487679e-05
0.0047623396
-1.2360765e-05
0.0063534174
-9.3574556e-06
0.0077444721
-3.8681117e-06
0.0089342143
2.3811667e-06
0.0099252874
7.7970871e-06
0.010718591
1.1256277e-05
0.011307864
1.2113197e-05
0.011671562
1.0174942e-05
0.011754566
5.7873874e-06
0.011412152
0.010099132
-1.8640268e-06
0.0010312907
-6.0761502e-06
0.0029861841
-9.3374763e-06
0.004765601
-9.2535922e-06
0.0063533336
-5.8255875e-06
0.0077410441
-4.008798e-07
0.0089287896
5.4171442e-06
0.0099194693
1.0206076e-05
0.010713802
1.2999123e-05
0.011305071
1.3241024e-05
0.01167132
1.0794265e-05
0.011757013
6.0287121e-06
0.011416917
0.010105161
-1.5866516e-06
0.0010328774
-4.9902363e-06
0.0029895877
-7.1706257e-06
0.0047677814
-6.2552645e-06
0.0063524182
-2.4927238e-06
0.0077372816
2.8317078e-06
0.0089234651
8.2068299e-06
0.0099140942
1.240899e-05
0.0107096
1.4586696e-05
0.011302893
1.4264325e-05
0.011671643
1.1353412e-05
0.011759924
6.2450942e-06
0.011422026
0.010111406
-1.2835171e-06
0.0010341609
-3.8541804e-06
0.0029921583
-5.0207725e-06
0.0047689479
-3.3849287e-06
0.0063507824
6.4625374e-07
0.0077332504
5.8154254e-06
0.008918296
1.0765996e-05
0.0099091437
1.4420925e-05
0.010705945
1.6030929e-05
0.011301283
1.5191113e-05
0.011672482
1.1856803e-05
0.011763258
6.4382265e-06
0.011427444
0.010117844
-9.603497e-07
0.0010351212
-2.6918185e-06
0.0029938898
-2.9183285e-06
0.0047691745
-6.5058122e-07
0.0063485146
3.578298e-06
0.0077290215
8.5629852e-06
0.0089133113
1.3108657e-05
0.009904598
1.6254635e-05
0.010702799
1.7341652e-05
0.011300196
1.6027821e-05
0.011673796
1.2307847e-05
0.011766978
6.6093059e-06
0.011433143
0.010124453
-6.253525e-07
0.0010357466
-1.5291136e-06
0.0029947936
-8.8735219e-07
0.0047685327
1.9291226e-06
0.0063456981
6.2873568e-06
0.0077246633
1.1084122e-05
0.0089085145
1.5247566e-05
0.0099004345
1.7921805e-05
0.010700125
1.8527853e-05
0.01129959
1.6780365e-05
0.011675544
1.2709745e-05
0.011771049
6.7595269e-06
0.011439093
0.010131213
-2.8821922e-07
0.0010360348
-3.9067652e-07
0.002994896
1.0457164e-06
0.0047670963
4.326683e-06
0.0063424172
8.7771355e-06
0.0077202129
1.3387475e-05
0.0089039042
1.7193156e-05
0.0098966289
1.9431872e-05
0.010697886
1.9596668e-05
0.011299425
1.7453312e-05
0.011677687
1.3064844e-05
0.011775437
6.8896814e-06
0.011445268
0.010138102
4.0779001e-08
0.001035994
6.9665269e-07
0.0029942401
2.848588e-06
0.0047649444
6.529595e-06
0.0063387362
1.1049499e-05
0.007715693
1.5480273e-05
0.0088994734
1.895403e-05
0.0098931551
2.079251e-05
0.010696048
2.0553801e-05
0.011299664
1.8050204e-05
0.011680191
1.3374868e-05
0.011780112
7.0002752e-06
0.011451643
0.010145103
3.5067003e-07
0.0010356434
1.7048539e-06
0.002992886
4.4970641e-06
0.0047621522
8.5307456e-06
0.0063347025
1.3105664e-05
0.007711118
1.7367936e-05
0.0088952111
2.053664e-05
0.0098899864
2.2009361e-05
0.010694575
2.1403272e-05
0.01130027
1.8573356e-05
0.011683021
1.364078e-05
0.011785045
7.0914974e-06
0.011458192
0.010152194
6.3198814e-07
0.0010350114
2.613778e-06
0.0029909042
5.9771593e-06
0.0047587888
1.0324452e-05
0.0063303552
1.4946197e-05
0.0077064963
1.9054147e-05
0.0088911032
2.1945369e-05
0.0098870952
2.3086099e-05
0.010693435
2.2147468e-05
0.011301209
1.9023854e-05
0.011686144
1.3862737e-05
0.011790206
7.1631232e-06
0.011464892
0.010159357
8.7875767e-07
0.0010341326
3.4113606e-06
0.0029883716
7.2795045e-06
0.0047549206
1.1906837e-05
0.0063257279
1.6571394e-05
0.0077018317
2.0541207e-05
0.0088871334
2.3182811e-05
0.0098844536
2.4024621e-05
0.010692593
2.2787234e-05
0.011302446
1.9401625e-05
0.01168953
1.4040159e-05
0.011795567
7.2146213e-06
0.011471717
0.010166572
1.0878983e-06
0.0010330447
4.091536e-06
0.0029853679
8.3994701e-06
0.0047506127
1.3276189e-05
0.0063208511
1.7981738e-05
0.0076971262
2.1830487e-05
0.0088832846
2.4250156e-05
0.0098820339
2.4825365e-05
0.010692017
2.3322142e-05
0.011303949
1.9705592e-05
0.011693146
1.417178e-05
0.011801101
7.2450903e-06
0.011478644
0.010173817
1.2588956e-06
0.0010317858
4.6536535e-06
0.0029819732
9.3370662e-06
0.0047459293
1.4433298e-05
0.0063157549
1.9178398e-05
0.0076923811
2.2922913e-05
0.0088795401
2.51476e-05
0.0098798092
2.5487597e-05
0.010691677
2.3750653e-05
0.011305686
1.9933793e-05
0.011696963
1.4255759e-05
0.011806779
7.2533952e-06
0.011485646
0.01018107
1.3932176e-06
0.0010303926
5.1015212e-06
0.0029782649
1.0096605e-05
0.0047409342
1.5381725e-05
0.0063104698
2.0163789e-05
0.007687599
2.3819603e-05
0.0088758843
2.5874929e-05
0.0098777539
2.6009928e-05
0.010691542
2.4070546e-05
0.011307626
2.0083687e-05
0.01170095
1.4289844e-05
0.011812573
7.2381841e-06
0.011492698
0.010188309
1.4936628e-06
0.0010288989
5.442261e-06
0.0029743163
1.0686105e-05
0.0047356904
1.6127872e-05
0.006305028
2.0942018e-05
0.0076827849
2.4522433e-05
0.0088723039
2.643209e-05
0.0098758442
2.6390798e-05
0.010691584
2.4279302e-05
0.011309737
2.0152441e-05
0.011705077
1.4271584e-05
0.011818454
7.1980197e-06
0.011499771
0.010195507
1.5637743e-06
0.0010273352
5.685171e-06
0.0029701949
1.1116531e-05
0.004730259
1.6680853e-05
0.0062994637
2.1519186e-05
0.0076779465
2.5034552e-05
0.0088687885
2.6819746e-05
0.009874059
2.6629006e-05
0.010691775
2.4374561e-05
0.011311992
2.0137297e-05
0.011709314
1.4198584e-05
0.011824393
7.1315291e-06
0.011506839
0.010202638
1.6073838e-06
0.0010257278
5.8407223e-06
0.0029659615
1.1400948e-05
0.0047246988
1.7052167e-05
0.0062938125
2.1903514e-05
0.0076730952
2.5360767e-05
0.0088653312
2.7039791e-05
0.00987238
2.6724245e-05
0.01069209
2.4354619e-05
0.011314361
2.0035971e-05
0.011713633
1.4068771e-05
0.01183036
7.0374897e-06
0.01151387
0.010209676
1.6282945e-06
0.0010240995
5.9197537e-06
0.0029616701
1.1553697e-05
0.0047190648
1.7255219e-05
0.006288111
2.2105252e-05
0.0076682452
2.5507726e-05
0.0088619288
2.7095663e-05
0.0098707921
2.6677464e-05
0.010692508
2.4218761e-05
0.01131682
1.9846958e-05
0.011718005
1.3880653e-05
0.011836326
6.9150303e-06
0.011520835
0.010216591
1.6300858e-06
0.0010224694
5.9328902e-06
0.0029573673
1.1589656e-05
0.0047134081
1.7304788e-05
0.0062823958
2.2136466e-05
0.0076634135
2.5483988e-05
0.0088585812
2.699261e-05
0.0098692835
2.6491232e-05
0.01069301
2.3967679e-05
0.011319343
1.9569883e-05
0.011722403
1.3633544e-05
0.011842263
6.763692e-06
0.011527705
0.010223354
1.6160089e-06
0.0010208534
5.8901524e-06
0.0029530931
1.1523634e-05
0.0047077746
1.7216447e-05
0.006276703
2.2010668e-05
0.0076586193
2.5299868e-05
0.008855292
2.67377e-05
0.0098678456
2.6169849e-05
0.010693578
2.3603604e-05
0.01132191
1.9205679e-05
0.0117268
1.3327754e-05
0.011848141
6.5835985e-06
0.011534449
0.010229938
1.5889465e-06
0.0010192644
5.8007367e-06
0.0029488813
1.1369919e-05
0.0047022054
1.7006072e-05
0.0062710669
2.1742441e-05
0.0076538829
2.4967244e-05
0.0088520672
2.6339799e-05
0.0098664731
2.5719454e-05
0.010694198
2.3130506e-05
0.011324499
1.8756759e-05
0.011731174
1.2964687e-05
0.011853933
6.3754371e-06
0.011541039
0.010236313
1.5514106e-06
0.001017713
5.6729086e-06
0.0029447598
1.1141955e-05
0.0046967363
1.668937e-05
0.0062655194
2.1346982e-05
0.0076492253
2.4499209e-05
0.008848915
2.5809335e-05
0.0098651629
2.5147886e-05
0.010694859
2.2554009e-05
0.011327093
1.8227013e-05
0.011735501
1.2546889e-05
0.011859613
6.1405461e-06
0.011547445
0.010242454
1.505564e-06
0.0010162075
5.513984e-06
0.0029407514
1.0852154e-05
0.0046913982
1.6281542e-05
0.0062600901
2.0839722e-05
0.0076446671
2.3909732e-05
0.008845845
2.5158057e-05
0.0098639146
2.4464533e-05
0.010695553
2.1881331e-05
0.011329676
1.762177e-05
0.011739761
1.2078008e-05
0.011865156
5.8808597e-06
0.011553642
0.010248335
1.4532525e-06
0.0010147542
5.3303625e-06
0.0029368743
1.0511791e-05
0.0046862168
1.5797004e-05
0.0062548048
2.0235951e-05
0.0076402282
2.3213283e-05
0.0088428677
2.4398698e-05
0.0098627292
2.3680063e-05
0.010696271
2.1121062e-05
0.011332235
1.694764e-05
0.011743934
1.1562689e-05
0.011870541
5.5988559e-06
0.011559606
0.010253934
1.3960413e-06
0.0010133582
5.1275912e-06
0.0029331428
1.0130983e-05
0.0046812134
1.5249212e-05
0.0062496866
1.9550526e-05
0.0076359268
2.2424482e-05
0.0088399937
2.3544635e-05
0.009861609
2.2806112e-05
0.01069701
2.0282908e-05
0.011334758
1.6212308e-05
0.011748005
1.1006435e-05
0.011875747
5.2974883e-06
0.011565315
0.010259231
1.3352514e-06
0.0010120229
4.9104441e-06
0.0029295676
9.7187112e-06
0.0046764051
1.4650548e-05
0.0062447548
1.879763e-05
0.0076317798
2.1557798e-05
0.0088372336
2.260956e-05
0.0098605573
2.1854979e-05
0.010697765
1.937742e-05
0.011337236
1.5424303e-05
0.011751958
1.0415407e-05
0.011880756
4.9800539e-06
0.01157075
0.010264211
1.2719931e-06
0.0010107509
4.6830051e-06
0.0029261565
9.2828786e-06
0.0046718052
1.4012274e-05
0.0062400254
1.7990598e-05
0.0076278014
2.062727e-05
0.0088345969
2.1607158e-05
0.0098595774
2.0839277e-05
0.010698532
1.8415649e-05
0.011339659
1.4592703e-05
0.011755781
9.7962245e-06
0.011885553
4.6501086e-06
0.011575896
0.010268861
1.2071967e-06
0.0010095437
4.4487519e-06
0.002922915
8.8303886e-06
0.0046674236
1.3344527e-05
0.0062355112
1.7141807e-05
0.0076240042
1.9646317e-05
0.0088320924
2.0550859e-05
0.0098586729
1.9771673e-05
0.010699312
1.7408905e-05
0.011342022
1.3726901e-05
0.011759463
9.1557483e-06
0.011890124
4.3112903e-06
0.011580741
0.010273173
1.1416388e-06
0.0010084021
4.2106285e-06
0.002919846
8.3672234e-06
0.004663267
1.2656335e-05
0.0062312221
1.626259e-05
0.0076203979
1.8627541e-05
0.0088297274
1.9453564e-05
0.0098578468
1.8664568e-05
0.010700101
1.6368413e-05
0.011344318
1.2836311e-05
0.011762995
8.5008831e-06
0.011894459
3.9672835e-06
0.011585275
0.01027714
1.0759657e-06
0.0010073261
3.971119e-06
0.0029169508
7.89854e-06
0.0046593396
1.195568e-05
0.006227165
1.5363227e-05
0.0076169904
1.7582654e-05
0.008827508
1.8327513e-05
0.009857102
1.7529928e-05
0.010700898
1.5305142e-05
0.011346543
1.1930179e-05
0.01176637
7.8383972e-06
0.011898551
3.6216418e-06
0.011589491
0.010280762
1.0107124e-06
0.0010063154
3.732306e-06
0.0029142293
7.4287489e-06
0.0046556431
1.1249548e-05
0.0062233442
1.4452928e-05
0.007613787
1.6522365e-05
0.0088254386
1.7184104e-05
0.0098564402
1.6379047e-05
0.010701703
1.4229531e-05
0.011348692
1.1017349e-05
0.011769582
7.1747568e-06
0.011902394
3.2777615e-06
0.011593388
0.010284039
9.463201e-07
0.0010053691
3.4959278e-06
0.0029116796
6.9616028e-06
0.0046521774
1.0544016e-05
0.0062197618
1.3539876e-05
0.0076107911
1.5456385e-05
0.008823522
1.6033836e-05
0.0098558628
1.5222459e-05
0.010702515
1.3151399e-05
0.011350763
1.0106141e-05
0.011772627
6.516007e-06
0.011905984
2.9387461e-06
0.011596966
0.010286978
8.8314947e-07
0.0010044859
3.2634227e-06
0.0029092994
6.5002634e-06
0.0046489406
9.8443098e-06
0.0062164177
1.2631251e-05
0.0076080042
1.4393378e-05
0.0088217599
1.4886209e-05
0.0098553699
1.4069785e-05
0.010703331
1.2079746e-05
0.011352753
9.2041863e-06
0.011775503
5.8676635e-06
0.01190932
2.6074266e-06
0.011600226
0.010289585
8.2149315e-07
0.0010036645
3.0359723e-06
0.0029070849
6.0473761e-06
0.0046459292
9.1548895e-06
0.0062133102
1.1733299e-05
0.0076054258
1.3341007e-05
0.0088201522
1.3749729e-05
0.0098549612
1.2929709e-05
0.010704151
1.1022726e-05
0.01135466
8.3183716e-06
0.011778207
5.2346503e-06
0.011912404
2.2862679e-06
0.011603174
0.010291872
7.6158565e-07
0.0010029029
2.8145362e-06
0.0029050319
5.6051301e-06
0.0046431386
8.4795188e-06
0.0062104358
1.0851385e-05
0.0076030539
1.2305948e-05
0.0088186976
1.263189e-05
0.0098546353
1.1809926e-05
0.010704973
9.9875651e-06
0.011356483
7.4547677e-06
0.01178074
4.6212504e-06
0.011915237
1.9773726e-06
0.011605818
0.010293849
7.0361206e-07
0.0010021993
2.5998829e-06
0.0029031357
5.175314e-06
0.0046405632
7.8213358e-06
0.0062077898
9.9900613e-06
0.0076008852
1.1293948e-05
0.0088173938
1.1539194e-05
0.00985439
1.0717142e-05
0.010705795
8.9805482e-06
0.011358219
6.6186086e-06
0.011783102
4.0310996e-06
0.011917825
1.6824871e-06
0.011608167
0.010295532
6.4771528e-07
0.0010015515
2.392617e-06
0.0029013908
4.7593678e-06
0.0046381964
7.1829222e-06
0.0062053662
9.1531405e-06
0.007598915
1.0309883e-05
0.008816237
1.047721e-05
0.0098542227
9.6571115e-06
0.010706615
8.0070474e-06
0.011359869
5.8143073e-06
0.011785295
3.4671823e-06
0.011920172
1.4029733e-06
0.011610231
0.010296935
5.940022e-07
0.0010009575
2.193201e-06
0.0028997916
4.3584243e-06
0.0046360312
6.566358e-06
0.0062031583
8.343752e-06
0.0075971376
9.3578025e-06
0.008815223
9.4505884e-06
0.0098541299
8.6346349e-06
0.010707431
7.0714994e-06
0.011361433
5.0454481e-06
0.011787321
2.9318548e-06
0.011922286
1.13987e-06
0.011612023
0.010298074
5.4254947e-07
0.001000415
2.0019777e-06
0.0028983321
3.973354e-06
0.0046340598
5.9732907e-06
0.0062011584
7.5644271e-06
0.0075955464
8.4410298e-06
0.0088143464
8.4631666e-06
0.0098541078
7.6536661e-06
0.010708241
6.1775244e-06
0.011362909
4.3148727e-06
0.011789183
2.4268862e-06
0.011924174
8.9386589e-07
0.011613556
0.010298968
4.9340734e-07
0.00099992158
1.8191838e-06
0.0028970064
3.6047923e-06
0.0046322742
5.4049695e-06
0.0061993582
6.8171343e-06
0.0075941343
7.5621815e-06
0.0088136013
7.517976e-06
0.009854152
6.7173068e-06
0.010709041
5.3278915e-06
0.011364298
3.6246804e-06
0.011790887
1.953506e-06
0.011925845
6.654153e-07
0.011614844
0.010299634
4.4660479e-07
0.00099947497
1.6449714e-06
0.002895808
3.2531847e-06
0.004630666
4.8623224e-06
0.0061977491
6.1033844e-06
0.0075928932
6.7233029e-06
0.0088129814
6.6173991e-06
0.0098542579
5.8279676e-06
0.010709831
4.52471e-06
0.011365601
2.9763686e-06
0.011792435
1.5124685e-06
0.011927309
4.5466169e-07
0.011615902
0.010300088
4.0215343e-07
0.00099907282
1.4794212e-06
0.0028947307
2.9188145e-06
0.0046292266
4.345995e-06
0.0061963219
5.4242808e-06
0.0075918149
5.9259189e-06
0.0088124798
5.7632162e-06
0.0098544206
4.9874336e-06
0.010710607
3.7694802e-06
0.011366819
2.3709537e-06
0.011793834
1.1042443e-06
0.011928575
2.617169e-07
0.011616744
0.01030035
3.6005043e-07
0.00099871277
1.3225569e-06
0.0028937682
2.601835e-06
0.0046279473
3.856408e-06
0.0061950673
4.7805993e-06
0.0075908907
5.1711431e-06
0.0088120892
4.9567456e-06
0.009854635
4.1970147e-06
0.010711366
3.0632899e-06
0.011367953
1.8091541e-06
0.011795088
7.2939311e-07
0.011929655
8.9085696e-08
0.011617385
0.010300439
3.2027569e-07
0.0009983925
1.1743303e-06
0.0028929142
2.3022345e-06
0.0046268194
3.3936902e-06
0.0061939759
4.172679e-06
0.0075901117
4.4595051e-06
0.0088118024
4.198589e-06
0.0098548959
3.4572062e-06
0.010712108
2.4063453e-06
0.011369004
1.2908263e-06
0.011796203
3.8765286e-07
0.011930558
-6.2281619e-08
0.011617835
0.010300377
2.8279369e-07
0.0009981097
1.0346299e-06
0.0028921623
2.0198545e-06
0.0046258342
2.9577078e-06
0.006193038
3.6004624e-06
0.007589469
3.7910013e-06
0.0088116119
3.4886996e-06
0.0098551982
2.7677855e-06
0.010712829
1.7982014e-06
0.011369974
8.1566683e-07
0.011797186
8.1125642e-08
0.011931293
-1.980392e-07
0.011618114