/*--------------------------------*- C++ -*----------------------------------*\
| =========                 |                                                 |
| \\      /  F ield         | OpenFOAM: The Open Source CFD Toolbox           |
|  \\    /   O peration     | Version:  2506                                  |
|   \\  /    A nd           | Website:  www.openfoam.com                      |
|    \\/     M anipulation  |                                                 |
\*---------------------------------------------------------------------------*/
FoamFile
{
    version     2.0;
    format      ascii;
    arch        "LSB;label=32;scalar=64";
    class       volVectorField;
    location    "26000/water";
    object      U;
}
// * * * * * * * * * * * * * * * * * * * * * * * * * * * * * * * * * * * * * //

dimensions      [0 1 -1 0 0 0 0];

internalField   nonuniform List<vector> 
2600
(
(0.2509291 -6.6886033e-05 -1.7876947e-19)
(0.25093316 -0.00014739222 -2.920697e-18)
(0.25094167 -0.00023143146 -9.2628107e-19)
(0.2509543 -0.00031980043 -4.9429116e-19)
(0.25097092 -0.0004082391 -4.2593931e-19)
(0.25099124 -0.00049673666 -3.2893829e-19)
(0.25101467 -0.0005856609 -6.1250598e-20)
(0.25103908 -0.00067482201 -5.6271766e-20)
(0.25105541 -0.00075972197 -6.1221239e-21)
(0.25102652 -0.00083857781 1.02053e-19)
(0.25079811 -0.00098580402 -2.1539627e-20)
(0.24954942 -0.001485464 2.9653902e-20)
(0.2411817 0.0014904344 -5.5550028e-19)
(0.25290631 -5.2391824e-05 5.4427906e-20)
(0.25291356 -0.00012867936 -3.534284e-18)
(0.25292967 -0.00020232594 -1.5794249e-18)
(0.25295369 -0.00027812692 -3.898895e-19)
(0.25298503 -0.00035187867 -4.7172248e-19)
(0.25302278 -0.00042368282 -4.9282125e-19)
(0.25306456 -0.0004936843 2.6180294e-21)
(0.25310219 -0.00056251339 4.339756e-20)
(0.25310631 -0.00062550536 -1.0138831e-20)
(0.25297401 -0.00066089399 4.735136e-20)
(0.25231856 -0.00068576655 -1.5397726e-21)
(0.24919071 -0.0011507908 -1.5810114e-19)
(0.23317376 0.00055016191 -6.5772086e-19)
(0.25485703 -5.0201261e-05 5.3099004e-19)
(0.25486389 -0.00012463928 -9.6869153e-19)
(0.2548791 -0.00019574884 -1.9366165e-18)
(0.2549016 -0.00026956178 -2.2028253e-19)
(0.25493052 -0.00034177627 -3.3714694e-19)
(0.25496396 -0.00041257844 -3.2679631e-19)
(0.25499618 -0.00048173979 1.2165391e-19)
(0.25500857 -0.00054996705 6.7072892e-19)
(0.25494172 -0.00061637669 3.0333012e-19)
(0.2546073 -0.0006602417 7.481052e-20)
(0.25332071 -0.00063871076 -2.0603209e-21)
(0.2478214 -0.00092597142 -3.1611924e-19)
(0.22526486 0.00012340436 -5.9355711e-19)
(0.25664521 -4.974385e-05 1.6245361e-18)
(0.25665224 -0.00012488064 2.1295312e-18)
(0.2566674 -0.00019721364 7.9105678e-20)
(0.2566896 -0.0002720698 -2.0264538e-19)
(0.25671747 -0.00034495172 -2.1199761e-19)
(0.25674738 -0.00041609227 -1.8930427e-19)
(0.25676826 -0.0004848948 1.7913872e-19)
(0.25674667 -0.00055096518 4.0287888e-19)
(0.25658539 -0.00061444887 -2.2130896e-21)
(0.2559957 -0.0006636637 1.1899824e-19)
(0.2539403 -0.00063277351 -6.0480896e-20)
(0.24583249 -0.00077044467 -3.453703e-19)
(0.21800982 -5.9385921e-05 -4.8243644e-19)
(0.25841323 -4.8556775e-05 6.8770684e-19)
(0.2584204 -0.00012219546 1.880713e-18)
(0.25843571 -0.00019301892 1.1568487e-18)
(0.25845781 -0.00026625064 -4.1929268e-19)
(0.25848442 -0.00033744492 -1.8349646e-19)
(0.25850914 -0.00040689654 1.5053382e-19)
(0.25851346 -0.00047389151 1.8751211e-19)
(0.25844542 -0.00053705871 6.4824467e-20)
(0.25816424 -0.00059536594 1.3415866e-19)
(0.25726648 -0.00064373127 8.285757e-21)
(0.25431322 -0.00061442321 -8.2350538e-20)
(0.24352458 -0.00065114415 -1.7409968e-19)
(0.21163262 -0.00012321892 -4.0273841e-19)
(0.26015467 -4.709344e-05 2.0745716e-18)
(0.26016187 -0.0001185153 1.526885e-18)
(0.26017704 -0.0001870764 1.3158216e-18)
(0.2601984 -0.00025799462 2.616996e-19)
(0.26022227 -0.00032687702 -1.6565273e-19)
(0.26023853 -0.00039398781 2.110727e-19)
(0.26021927 -0.00045855461 1.0446928e-19)
(0.26009115 -0.00051865148 6.4064244e-20)
(0.25966515 -0.00057157394 1.6822032e-19)
(0.2584067 -0.0006148087 4.9400841e-20)
(0.25443266 -0.00058544056 -8.7979008e-20)
(0.24102793 -0.0005571206 8.8484818e-20)
(0.20612335 -0.00013293671 -3.3715213e-19)
(0.26183846 -4.5390268e-05 8.8256228e-19)
(0.26184561 -0.00011435405 1.2372817e-18)
(0.26186042 -0.00018050108 1.5839993e-18)
(0.26188043 -0.00024892327 1.033368e-18)
(0.26190008 -0.00031528561 1.7661714e-19)
(0.26190445 -0.00037977026 -6.1889791e-20)
(0.26185458 -0.00044151446 1.4409038e-19)
(0.2616533 -0.00049832849 -1.478036e-19)
(0.26105826 -0.00054618084 -3.1895903e-19)
(0.25938354 -0.00058222647 1.173973e-20)
(0.25426994 -0.00054801504 -2.1655016e-20)
(0.23842933 -0.00047868139 -1.2863164e-20)
(0.20141646 -0.00011963306 -4.5360386e-19)
(0.26345768 -4.3664882e-05 -2.5071016e-18)
(0.26346469 -0.00011008557 -1.4813019e-18)
(0.26347885 -0.00017377013 -3.4106172e-19)
(0.26349678 -0.00023963045 2.842872e-19)
(0.26351051 -0.00030340684 3.1008313e-19)
(0.26349932 -0.00036518044 1.2997838e-19)
(0.26341166 -0.00042394823 3.8120711e-20)
(0.2631242 -0.00047735794 2.7104889e-20)
(0.26233468 -0.00052050214 1.6455019e-20)
(0.26018092 -0.00054846095 -3.9939261e-20)
(0.25381559 -0.00050481858 4.9743646e-20)
(0.23581666 -0.00040978299 1.0704387e-19)
(0.19745226 -9.8494614e-05 -3.1009778e-19)
(0.26501552 -4.2046877e-05 1.8157957e-18)
(0.26502225 -0.00010599907 7.4066533e-19)
(0.26503542 -0.00016730209 7.4279516e-19)
(0.26505044 -0.00023067618 1.0374835e-18)
(0.26505633 -0.00029193976 2.8846767e-19)
(0.26502564 -0.00035106733 4.115037e-19)
(0.26489279 -0.0004068816 1.2115603e-19)
(0.26450568 -0.00045685738 5.8133615e-20)
(0.26349313 -0.00049549056 -9.7127309e-20)
(0.26078727 -0.00051473411 -4.5763691e-20)
(0.25307513 -0.00045847925 4.5979668e-20)
(0.23327192 -0.0003473798 2.4497233e-19)
(0.19416843 -7.6932874e-05 -5.6487596e-20)
(0.2665165 -4.057706e-05 1.0812312e-18)
(0.26652283 -0.00010224007 1.0075876e-18)
(0.26653459 -0.00016134012 8.7313321e-19)
(0.26654572 -0.0002224043 7.8903084e-19)
(0.26654166 -0.00028132047 2.3462615e-20)
(0.26648729 -0.00033795567 -3.3309517e-20)
(0.26630156 -0.0003909415 8.7180616e-20)
(0.26580019 -0.00043752442 -8.2418287e-20)
(0.26453091 -0.00047164498 -1.0923221e-19)
(0.26118849 -0.00048140525 -7.4037188e-20)
(0.25206937 -0.00041120617 1.6064223e-20)
(0.23086314 -0.00029047958 -1.5571178e-19)
(0.19149027 -5.8333248e-05 -2.4551643e-19)
(0.26796591 -3.9276698e-05 -2.4908638e-18)
(0.26797166 -9.8886215e-05 -9.0871028e-19)
(0.26798155 -0.00015601486 -1.4284486e-19)
(0.26798768 -0.00021499986 2.8164612e-19)
(0.26797137 -0.00027178437 2.8484562e-19)
(0.26788889 -0.00032612646 -2.5762053e-19)
(0.26764202 -0.00037645613 -1.1778517e-19)
(0.26700984 -0.00041972353 -5.6460066e-20)
(0.26544297 -0.00044912486 -7.2630712e-20)
(0.26137042 -0.00044842587 -1.3460041e-19)
(0.25083979 -0.0003647594 -9.858366e-20)
(0.22864123 -0.00023936526 -5.4776862e-19)
(0.18933265 -4.3854014e-05 -2.4786436e-19)
(0.26936985 -3.8151202e-05 -9.4762718e-21)
(0.26937484 -9.5961772e-05 -8.5666415e-19)
(0.26938229 -0.00015136516 1.2757593e-19)
(0.2693822 -0.00020851724 2.7919338e-19)
(0.26935114 -0.00026339986 3.8208885e-19)
(0.26923575 -0.00031565718 2.7278877e-20)
(0.26891866 -0.00036350366 5.3397825e-21)
(0.26813622 -0.00040351927 -3.3846975e-20)
(0.26622207 -0.00042777198 7.9670356e-20)
(0.26132397 -0.00041560855 -3.7821099e-20)
(0.24944814 -0.00032041762 -2.3807367e-19)
(0.22663743 -0.00019477817 -4.2261267e-19)
(0.18760708 -3.3365968e-05 -2.5668206e-19)
(0.27073452 -3.7186892e-05 1.2790377e-18)
(0.27073851 -9.3441595e-05 -5.9406978e-19)
(0.27074291 -0.00014735094 -2.2448645e-19)
(0.27073523 -0.00020290125 3.9144054e-19)
(0.27068668 -0.0002560959 1.801884e-19)
(0.27053315 -0.00030645578 1.0773379e-19)
(0.27013553 -0.00035195662 -3.056241e-20)
(0.26917943 -0.00038871662 -2.9128215e-20)
(0.26685881 -0.00040716162 -4.1254464e-20)
(0.26105041 -0.00038281109 1.2584247e-20)
(0.24796793 -0.00027903903 -2.6698092e-19)
(0.2248628 -0.0001572352 -3.9972997e-19)
(0.18622942 -2.6089625e-05 -3.0024639e-19)
(0.27206549 -3.6358598e-05 -6.5000409e-19)
(0.27206822 -9.1270025e-05 3.8328672e-19)
(0.27206885 -0.00014388431 5.7604854e-20)
(0.27205207 -0.00019803069 1.0181255e-18)
(0.27198302 -0.00024971699 -3.4749158e-19)
(0.27178551 -0.00029832671 4.5528757e-20)
(0.27129541 -0.00034156267 1.8399929e-19)
(0.27013718 -0.00037494839 -1.2655376e-21)
(0.26734241 -0.00038673535 -1.2194674e-19)
(0.2605654 -0.00035005846 -4.3244975e-20)
(0.24647172 -0.00024119446 -2.1354768e-19)
(0.22331131 -0.00012666964 -4.1899819e-19)
(0.18512583 -2.1076381e-05 -4.4682008e-19)
(0.27336737 -3.5638787e-05 -8.3275462e-19)
(0.27336856 -8.938186e-05 5.8838477e-19)
(0.27336463 -0.00014086217 1.1079053e-18)
(0.27333706 -0.00019376295 2.3353686e-19)
(0.27324415 -0.00024407934 -1.2054184e-19)
(0.27299604 -0.00029103799 1.4426704e-19)
(0.27239931 -0.00033202383 2.7921125e-19)
(0.27100443 -0.00036176734 -6.1329929e-21)
(0.26766283 -0.00036596046 1.7060104e-19)
(0.25989992 -0.00031757794 -9.8879675e-20)
(0.24502002 -0.00020725746 -3.0552791e-19)
(0.22196569 -0.00010242449 -7.6644023e-20)
(0.18423545 -1.7507124e-05 -1.9361367e-19)
(0.27464382 -3.5002893e-05 1.5046508e-18)
(0.27464313 -8.7716017e-05 6.0643226e-19)
(0.27463375 -0.00013818758 7.9814682e-19)
(0.2745935 -0.00018996324 1.2112659e-19)
(0.27447297 -0.00023900779 4.7661292e-19)
(0.27416661 -0.00028436529 2.0050593e-19)
(0.27344636 -0.00032304577 6.2929428e-20)
(0.27177364 -0.00034871442 9.1642691e-20)
(0.26781391 -0.00034445792 -1.3470018e-19)
(0.25909705 -0.00028576382 -1.6706765e-19)
(0.2436552 -0.00017740821 -2.3835469e-19)
(0.22080343 -8.3473054e-05 -2.1122806e-19)
(0.18351045 -1.4804611e-05 6.934507e-20)
(0.27589768 -3.4431105e-05 2.8783231e-19)
(0.27589473 -8.6221416e-05 1.3980813e-19)
(0.27587888 -0.00013577913 -3.1396853e-19)
(0.27582384 -0.00018651756 1.9939441e-19)
(0.27567139 -0.00023435206 4.5108876e-19)
(0.27529788 -0.00027811161 7.5953534e-20)
(0.27443375 -0.00031435606 -3.0795062e-20)
(0.27243556 -0.00033536391 -5.0751208e-20)
(0.26779662 -0.00032206947 -1.3643251e-19)
(0.25820551 -0.00025510597 -2.6660279e-19)
(0.24240122 -0.00015160161 -1.6195025e-19)
(0.21980119 -6.8690983e-05 -3.3337088e-19)
(0.18291435 -1.2618537e-05 -3.0725842e-19)
(0.27713109 -3.3908296e-05 -1.3248548e-18)
(0.27712546 -8.4858e-05 -6.0499586e-19)
(0.27710201 -0.00013357264 -5.0648199e-19)
(0.27702977 -0.00018333501 1.2307202e-19)
(0.27684047 -0.00022998947 3.914326e-19)
(0.2763893 -0.00027211088 -1.2151088e-20)
(0.27535691 -0.00030570399 -1.4885043e-19)
(0.2729805 -0.00032135787 -1.5361892e-19)
(0.26762111 -0.00029886294 -2.5645348e-19)
(0.25727242 -0.0002261044 -2.2838794e-19)
(0.24126718 -0.00012956884 -2.7394421e-19)
(0.21893722 -5.7057417e-05 -2.8630086e-19)
(0.18241982 -1.0759066e-05 -2.3828521e-19)
(0.27834572 -3.3423244e-05 1.2874187e-18)
(0.27833694 -8.3595439e-05 2.4172644e-19)
(0.2783046 -0.00013151911 -2.405865e-20)
(0.27821241 -0.00018034488 4.9152691e-19)
(0.27798052 -0.00022582105 -3.8917978e-19)
(0.27743925 -0.00026622306 -2.7348597e-20)
(0.27620962 -0.00029685485 1.1938899e-19)
(0.27340008 -0.00030643644 -3.4011657e-20)
(0.26730692 -0.00027509383 -2.0906468e-19)
(0.25633756 -0.00019918429 -1.1565418e-19)
(0.24025214 -0.00011087579 -1.8246333e-19)
(0.21819234 -4.7749365e-05 -1.463441e-19)
(0.18200662 -9.1303473e-06 -3.3333016e-19)
(0.27954284 -3.2967676e-05 9.9012908e-19)
(0.27953036 -8.2411067e-05 1.1326687e-18)
(0.27948767 -0.00012958149 9.7086935e-19)
(0.27937237 -0.00017749197 -9.8121978e-20)
(0.27909121 -0.00022176547 -2.2928909e-19)
(0.27844503 -0.00026032528 3.0401314e-21)
(0.27698441 -0.00028758731 1.6744465e-19)
(0.27368915 -0.00029046172 3.008242e-20)
(0.26688073 -0.00025114512 1.9325955e-19)
(0.25543062 -0.00017462896 1.8247536e-19)
(0.2393495 -9.5013868e-05 6.4115443e-20)
(0.21755 -4.0152327e-05 8.8493375e-20)
(0.18165972 -7.6839717e-06 -1.4558011e-19)
(0.28072346 -3.2535411e-05 6.4434056e-19)
(0.28070667 -8.1287796e-05 1.2655046e-18)
(0.28065194 -0.00012773125 9.4524135e-19)
(0.28050986 -0.0001747318 2.8970303e-20)
(0.28017156 -0.00021775304 6.0851148e-20)
(0.27940289 -0.00025430189 -3.3378797e-20)
(0.27767312 -0.0002776979 1.8100985e-19)
(0.27384765 -0.00027342828 3.3934081e-19)
(0.26637281 -0.00022746055 5.5878575e-20)
(0.2545711 -0.00015254853 -2.8863655e-19)
(0.23855012 -8.1484063e-05 -2.6558447e-19)
(0.21699614 -3.3827469e-05 -1.0410515e-19)
(0.18136794 -6.3925675e-06 9.5584133e-20)
(0.28188837 -3.2121656e-05 2.9530365e-18)
(0.28186655 -8.0212344e-05 1.5043037e-18)
(0.28179785 -0.0001259455 3.7743678e-19)
(0.28162471 -0.00017202641 1.9343375e-19)
(0.28121999 -0.00021372065 1.5189088e-19)
(0.28030804 -0.00024803604 1.5155933e-20)
(0.27826773 -0.00026701329 9.3255844e-21)
(0.27388156 -0.00025545694 2.6749705e-19)
(0.26581311 -0.00020447969 2.8114516e-20)
(0.25377001 -0.0001328906 -5.3380866e-19)
(0.23784411 -6.984996e-05 -3.4943213e-19)
(0.21651887 -2.8467188e-05 -1.9513433e-19)
(0.18112283 -5.2371218e-06 -4.9390792e-20)
(0.28303819 -3.1722485e-05 1.5680902e-18)
(0.28301052 -7.9173849e-05 6.700943e-19)
(0.28292559 -0.00012420469 -2.4811185e-19)
(0.28271638 -0.00016934096 -5.058451e-19)
(0.2822343 -0.00020960734 3.6033694e-19)
(0.28115476 -0.00024140494 2.1168213e-19)
(0.27876144 -0.00025540748 -1.254565e-19)
(0.27380291 -0.00023677357 2.0332426e-19)
(0.26522808 -0.0001825817 7.6927152e-20)
(0.25303215 -0.00011548285 -2.0971442e-20)
(0.23722187 -5.9756987e-05 3.8084675e-20)
(0.21610816 -2.3855689e-05 -1.0571138e-19)
(0.18091788 -4.2018548e-06 7.9403225e-20)
(0.28417339 -3.1334451e-05 5.8682222e-19)
(0.28413893 -7.8162816e-05 1.1996718e-19)
(0.28403512 -0.00012249081 -3.8782074e-19)
(0.28378396 -0.00016664113 1.4836244e-19)
(0.28321158 -0.00020535009 -2.5277905e-19)
(0.28193659 -0.0002342804 4.415812e-19)
(0.27914984 -0.00024281874 5.0156761e-19)
(0.27362851 -0.00021767782 5.770094e-19)
(0.26463906 -0.00016204559 1.0269071e-19)
(0.25235823 -0.00010008754 -2.8459072e-19)
(0.23667446 -5.0928431e-05 -5.5093221e-19)
(0.21575559 -1.9839541e-05 -3.1722914e-19)
(0.18074793 -3.2726224e-06 -3.6047791e-20)
(0.28529433 -3.0954304e-05 -8.4623446e-19)
(0.28525196 -7.7170334e-05 8.1506742e-19)
(0.28512619 -0.00012078599 8.7816812e-19)
(0.28482614 -0.00016389137 4.7052161e-19)
(0.28414822 -0.00020087986 1.6341498e-19)
(0.28264669 -0.00022653515 2.8204546e-19)
(0.27943202 -0.00022926075 4.7934597e-19)
(0.27337791 -0.00019850621 1.1688692e-19)
(0.26406181 -0.00014303339 6.0185603e-20)
(0.25174654 -8.6449662e-05 1.6709174e-19)
(0.23619383 -4.3151051e-05 -2.5639599e-19)
(0.21545404 -1.6307447e-05 -3.0342427e-19)
(0.18060883 -2.4366726e-06 -7.9134629e-20)
(0.28640123 -3.0578784e-05 -1.3360342e-18)
(0.28634965 -7.6187461e-05 -4.5743637e-21)
(0.28619826 -0.00011907138 8.9979112e-19)
(0.28584114 -0.00016105348 -1.3200651e-20)
(0.28503985 -0.00019611847 6.4811165e-19)
(0.2832784 -0.000218054 1.6998611e-19)
(0.27961117 -0.0002148247 -3.7706682e-20)
(0.27307114 -0.00017959425 1.5233968e-19)
(0.26350715 -0.00012559654 -1.8944455e-20)
(0.25119402 -7.4328925e-05 2.5650441e-19)
(0.23577276 -3.6259325e-05 2.1501155e-19)
(0.21519748 -1.3176795e-05 -6.888354e-20)
(0.18049716 -1.6827201e-06 7.110033e-20)
(0.28749419 -3.0204452e-05 6.3395356e-19)
(0.28743185 -7.520472e-05 1.2976757e-18)
(0.28725056 -0.00011732616 -1.4783916e-20)
(0.28682673 -0.0001580853 -1.3159681e-20)
(0.28588145 -0.00019097762 3.4931388e-19)
(0.28382593 -0.00020874813 3.6690321e-19)
(0.27969464 -0.00019967156 -8.2541294e-20)
(0.27272686 -0.0001612419 8.2334351e-20)
(0.26298189 -0.00010969941 2.3135965e-21)
(0.25069697 -6.3514969e-05 -1.1855774e-19)
(0.23540492 -3.0122498e-05 4.0688101e-20)
(0.21498079 -1.0384772e-05 3.4368326e-20)
(0.18041 -1.0009805e-06 -9.4841679e-20)
(0.28857317 -2.9827536e-05 6.7202461e-20)
(0.28849825 -7.4211614e-05 2.2642302e-18)
(0.28828196 -0.00011552672 2.3331849e-19)
(0.28778008 -0.00015493915 -2.8448102e-20)
(0.28666738 -0.00018536089 5.3202612e-19)
(0.28428521 -0.00019856895 3.8535048e-19)
(0.27969326 -0.00018401635 -5.9521674e-22)
(0.27236107 -0.00014368788 -6.9300325e-21)
(0.26248991 -9.5249827e-05 -3.1206329e-20)
(0.25025143 -5.3830518e-05 -8.1240899e-20)
(0.23508472 -2.4635252e-05 8.6875581e-20)
(0.21479959 -7.8824864e-06 1.494985e-19)
(0.18034487 -3.8308583e-07 -5.3242974e-20)
(0.28963798 -2.9443751e-05 3.1617643e-19)
(0.28954832 -7.3196109e-05 -3.4211098e-19)
(0.28929102 -0.00011364594 4.4179862e-20)
(0.2886978 -0.00015155983 8.4228134e-19)
(0.28739174 -0.00017916928 2.7753322e-19)
(0.28465455 -0.00018751865 3.4979555e-19)
(0.27962017 -0.0001681064 5.2417116e-19)
(0.2719867 -0.00012709646 5.1018591e-19)
(0.26203302 -8.2127506e-05 2.1079589e-19)
(0.24985346 -4.5128129e-05 -4.3546429e-19)
(0.23480728 -1.9711282e-05 -3.2215619e-19)
(0.21465012 -5.6310198e-06 -1.0023678e-19)
(0.18029962 1.7809378e-07 -5.3340222e-20)
(0.29068824 -2.9047998e-05 2.4093896e-18)
(0.29058125 -7.2143824e-05 9.5528478e-20)
(0.29027586 -0.00011165221 8.9764734e-19)
(0.28957586 -0.00014788248 6.3010491e-19)
(0.28804865 -0.00017230926 2.3392587e-19)
(0.28493523 -0.00017565385 3.0872492e-19)
(0.2794894 -0.0001521958 6.3306704e-19)
(0.2716136 -0.00011155662 2.4434848e-19)
(0.26161163 -7.0203584e-05 4.2274589e-19)
(0.24949925 -3.7283244e-05 4.3811619e-19)
(0.23456828 -1.527711e-05 -4.2992825e-20)
(0.21452909 -3.5979242e-06 -1.0657016e-19)
(0.18027234 6.8886783e-07 -6.4339709e-20)
(0.29172336 -2.863428e-05 -2.8567181e-20)
(0.291596 -7.1037636e-05 1.5002883e-18)
(0.29123415 -0.00010950892 1.826281e-18)
(0.29040962 -0.00014383257 -1.0590523e-19)
(0.28863287 -0.0001647043 4.8428725e-19)
(0.28513156 -0.00016308397 2.090983e-19)
(0.27931466 -0.00013652208 2.5598712e-19)
(0.27124896 -9.7093595e-05 5.017279e-19)
(0.26122524 -5.9353702e-05 2.3367195e-19)
(0.24918522 -3.019024e-05 5.612947e-19)
(0.23436395 -1.1270365e-05 3.8359046e-19)
(0.2144337 -1.730603e-06 2.325297e-19)
(0.18026136 1.1761137e-06 1.524835e-19)
(0.29274252 -2.8196034e-05 7.2249075e-19)
(0.29259116 -6.985846e-05 1.5307016e-18)
(0.29216305 -0.00010717577 8.0589802e-19)
(0.29119393 -0.00013933086 4.9422037e-19)
(0.28914031 -0.00015631033 4.8854537e-19)
(0.28525057 -0.00014996784 3.3312848e-19)
(0.27910837 -0.00012129301 1.1172193e-19)
(0.2708978 -8.3692897e-05 3.2561224e-19)
(0.26087272 -4.9471667e-05 1.2736039e-19)
(0.24890802 -2.3766841e-05 -1.0124029e-19)
(0.23419085 -7.6477131e-06 2.2244112e-19)
(0.21436056 -1.6293391e-08 1.0079368e-19)
(0.18026627 1.6403782e-06 4.1892798e-20)
(0.2937446 -2.7725098e-05 1.8462519e-18)
(0.29356496 -6.8583188e-05 3.4620872e-19)
(0.29305914 -0.00010460504 -8.661546e-21)
(0.29192334 -0.00013429446 6.0587305e-19)
(0.28956868 -0.00014712079 4.674983e-19)
(0.2853013 -0.00013649481 1.5719245e-19)
(0.27888121 -0.0001066684 1.2479899e-19)
(0.27056351 -7.1310517e-05 1.5578446e-19)
(0.26055265 -4.046294e-05 1.7266948e-19)
(0.24866458 -1.7940296e-05 1.5677653e-19)
(0.23404606 -4.353928e-06 4.3235614e-20)
(0.21430781 1.5374058e-06 4.2285513e-20)
(0.18028522 2.0564027e-06 1.2570735e-20)
(0.29472815 -2.7211024e-05 -1.9595187e-18)
(0.29451518 -6.7183244e-05 -1.8789912e-19)
(0.29391842 -0.00010173906 1.4683407e-19)
(0.29259237 -0.00012864185 9.9202494e-19)
(0.28991788 -0.0001371695 -1.0262695e-19)
(0.28529395 -0.00012286453 -3.9407093e-20)
(0.27864193 -9.275294e-05 6.2734254e-19)
(0.27024822 -5.9882456e-05 6.2778887e-19)
(0.26026336 -3.2238671e-05 1.8892807e-19)
(0.24845204 -1.2642373e-05 -2.1161e-19)
(0.23392646 -1.3358592e-06 -3.2768432e-19)
(0.21427448 2.9562115e-06 -9.9204874e-21)
(0.18031663 2.4263531e-06 -1.2293754e-20)
(0.29569132 -2.6641402e-05 -5.7118427e-19)
(0.2954391 -6.5625547e-05 4.9840439e-19)
(0.29473631 -9.8512686e-05 1.2726918e-18)
(0.29319592 -0.0001223057 9.0465573e-19)
(0.29019018 -0.00012653597 3.3172442e-19)
(0.2852389 -0.00010927515 5.4907976e-19)
(0.27839743 -7.9607251e-05 5.1375372e-19)
(0.26995312 -4.9342202e-05 -7.7195409e-20)
(0.26000309 -2.472214e-05 4.3987982e-20)
(0.24826773 -7.8150419e-06 7.4077284e-20)
(0.23382955 1.4152081e-06 -1.1497357e-19)
(0.2142592 4.2391362e-06 -1.3066434e-19)
(0.18035932 2.7544851e-06 -4.0442722e-20)
(0.29663173 -2.6001182e-05 1.5804767e-18)
(0.29633339 -6.3871157e-05 -4.0241058e-19)
(0.29550768 -9.4853897e-05 9.1397021e-19)
(0.29372976 -0.0001152412 1.0557616e-19)
(0.29039012 -0.00011533897 7.2526743e-19)
(0.28514604 -9.5905364e-05 5.891294e-19)
(0.27815305 -6.7254101e-05 2.5394335e-19)
(0.26967872 -3.9623276e-05 9.6443914e-20)
(0.25977003 -1.7841784e-05 1.3079661e-19)
(0.24810923 -3.3838878e-06 4.9500267e-19)
(0.23375398 3.9312797e-06 3.7479122e-19)
(0.21425996 5.3906663e-06 6.1062098e-20)
(0.18041214 3.0443812e-06 8.4161061e-20)
(0.29754645 -2.5272391e-05 1.2627309e-18)
(0.29719411 -6.1874453e-05 1.058277e-18)
(0.29622706 -9.0687763e-05 4.4173187e-19)
(0.29419101 -0.00010743479 1.6751607e-19)
(0.290524 -0.00010372736 6.4148384e-19)
(0.28502427 -8.2903334e-05 1.6500822e-19)
(0.27791277 -5.5688885e-05 1.430909e-19)
(0.26942499 -3.0662165e-05 2.8249704e-19)
(0.25956226 -1.1539603e-05 1.5084556e-19)
(0.24797362 6.7597309e-07 1.0608039e-19)
(0.23369893 6.2277793e-06 2.9919092e-19)
(0.21427538 6.4296704e-06 2.4476663e-19)
(0.18047413 3.3031022e-06 4.6672001e-20)
(0.29843186 -2.443409e-05 1.0583341e-18)
(0.29801658 -5.9582981e-05 2.6221152e-18)
(0.29688883 -8.5943395e-05 9.4703666e-20)
(0.29457851 -9.8910837e-05 3.0793664e-19)
(0.29059935 -9.1868409e-05 7.4917098e-19)
(0.28488126 -7.0382585e-05 3.9697494e-19)
(0.27767954 -4.4890631e-05 1.035439e-19)
(0.26919163 -2.2395784e-05 2.9807536e-19)
(0.25937815 -5.7363575e-06 1.7645734e-19)
(0.24785972 4.390532e-06 1.4255576e-19)
(0.2336621 8.3016212e-06 3.0899146e-19)
(0.21430404 7.3666982e-06 2.6614016e-19)
(0.18054443 3.5354488e-06 9.5645021e-20)
(0.29928359 -2.3462152e-05 1.8841553e-18)
(0.29879547 -5.693759e-05 2.1619309e-18)
(0.29748763 -8.0561617e-05 1.2799414e-19)
(0.29489309 -8.9732416e-05 1.0236138e-18)
(0.29062422 -7.9932317e-05 -1.34803e-19)
(0.28472341 -5.8420072e-05 6.5583517e-19)
(0.27745536 -3.4827498e-05 1.0243927e-18)
(0.26897782 -1.4770377e-05 8.0513266e-19)
(0.25921519 -3.9177797e-07 3.5321092e-19)
(0.24776701 7.7920485e-06 -3.3712543e-19)
(0.23364198 1.0181083e-05 -1.6650941e-19)
(0.21434474 8.2147287e-06 4.0477961e-20)
(0.18062225 3.7449557e-06 3.3649929e-20)
(0.30009637 -2.2329728e-05 9.7797682e-19)
(0.29952479 -5.3875493e-05 2.873065e-18)
(0.29801875 -7.4505246e-05 1.623798e-18)
(0.29513749 -7.9999936e-05 9.3951534e-19)
(0.29060659 -6.8080562e-05 2.2119424e-19)
(0.28455591 -4.7062464e-05 6.9748984e-19)
(0.27724164 -2.5459219e-05 6.8378691e-19)
(0.2687829 -7.7156767e-06 1.9641087e-19)
(0.25907248 4.5153681e-06 1.6545137e-19)
(0.24769346 1.0881343e-05 -8.4878827e-20)
(0.23363709 1.1884809e-05 -1.3102825e-19)
(0.21439637 8.9836868e-06 -3.6064698e-20)
(0.1807069 3.9342955e-06 -4.876291e-20)
(0.30086402 -2.1007834e-05 1.0501295e-19)
(0.30019808 -5.0335132e-05 3.5038083e-18)
(0.29847858 -6.7767489e-05 2.3816194e-18)
(0.29531607 -6.9843608e-05 -7.3292089e-19)
(0.29055391 -5.6454413e-05 7.4470485e-19)
(0.28438287 -3.6332023e-05 4.9646986e-19)
(0.27703906 -1.6748278e-05 -1.6236538e-19)
(0.2686053 -1.1875585e-06 -3.7477642e-19)
(0.25894976 9.0212874e-06 6.1874447e-20)
(0.24763751 1.3689735e-05 5.7279196e-19)
(0.23364609 1.3431025e-05 1.7643354e-19)
(0.21445793 9.6806282e-06 -1.9706397e-19)
(0.18079772 4.1049776e-06 -6.4805292e-20)
(0.30157943 -1.9467187e-05 2.3224969e-18)
(0.30080863 -4.626433e-05 3.1507258e-18)
(0.29886499 -6.0378815e-05 1.543677e-18)
(0.29543444 -5.941394e-05 -2.8719319e-19)
(0.29047287 -4.516936e-05 1.8099676e-19)
(0.28420752 -2.6229158e-05 -1.7490722e-19)
(0.27684812 -8.6362905e-06 -2.5117846e-19)
(0.26844451 4.8386091e-06 -3.3310325e-19)
(0.25884557 1.313572e-05 -5.9072923e-20)
(0.2475977 1.6244045e-05 1.5455619e-19)
(0.23366777 1.4835313e-05 2.5165862e-20)
(0.21452852 1.0311957e-05 -4.290316e-20)
(0.18089414 4.2585154e-06 -1.1814485e-19)
(0.30223466 -1.7681565e-05 2.4996874e-18)
(0.3013499 -4.1630417e-05 -3.8029638e-19)
(0.29917751 -5.2409522e-05 7.1514332e-19)
(0.29549883 -4.8869406e-05 7.0760903e-19)
(0.29036918 -3.4313642e-05 4.293957e-19)
(0.28403214 -1.6747511e-05 -2.0108979e-19)
(0.27666826 -1.0891127e-06 4.0469005e-19)
(0.26830088 1.0390966e-05 2.0421031e-20)
(0.25875851 1.688847e-05 -3.2514865e-19)
(0.24757272 1.8568174e-05 -5.0820045e-19)
(0.23370102 1.6110025e-05 1.3944952e-21)
(0.21460732 1.0882778e-05 -7.0057167e-20)
(0.18099561 4.3960969e-06 -1.2376057e-19)
(0.30282117 -1.5633385e-05 -1.3932315e-18)
(0.30181594 -3.6431472e-05 -1.2706442e-18)
(0.29941741 -4.3968537e-05 1.4049012e-19)
(0.29551566 -3.8365445e-05 7.1352225e-19)
(0.2902477 -2.39452e-05 7.4386305e-19)
(0.28385859 -7.8477002e-06 3.1591429e-19)
(0.27649982 5.914151e-06 4.0306452e-19)
(0.26817344 1.5479845e-05 1.7046116e-19)
(0.25868728 2.0310878e-05 -1.8924529e-19)
(0.24756135 2.0682683e-05 -3.1585536e-19)
(0.23374484 1.7265763e-05 -8.4862514e-20)
(0.21469357 1.1397651e-05 -2.0808125e-19)
(0.18110164 4.5188179e-06 -6.5094351e-20)
(0.30333026 -1.3320781e-05 8.0003232e-21)
(0.30220188 -3.0705569e-05 1.9822668e-18)
(0.29958744 -3.5196346e-05 4.4112521e-19)
(0.29549103 -2.8043611e-05 9.6513507e-19)
(0.29011218 -1.4099796e-05 3.2641418e-19)
(0.28368733 4.8522951e-07 3.8064825e-19)
(0.276344 1.238897e-05 -4.6539818e-19)
(0.26806119 2.0135211e-05 -6.5418888e-20)
(0.2586307 2.3431448e-05 3.8510663e-19)
(0.24756246 2.2604673e-05 4.3283349e-19)
(0.23379832 1.8311585e-05 1.9651135e-19)
(0.21478659 1.1860567e-05 1.5432881e-19)
(0.18121176 4.6276266e-06 2.6006943e-21)
(0.30375373 -1.0764895e-05 4.7058301e-18)
(0.30250438 -2.4536333e-05 4.0336534e-18)
(0.29969147 -2.6255562e-05 2.6339167e-18)
(0.29543051 -1.8024154e-05 3.8014135e-19)
(0.28996561 -4.7857539e-06 3.0959093e-19)
(0.28352015 8.2431961e-06 4.1722349e-19)
(0.27620025 1.8335979e-05 9.1681817e-20)
(0.26796311 2.4389581e-05 3.4056605e-20)
(0.25858763 2.6274786e-05 5.9107783e-19)
(0.24757502 2.4349051e-05 5.1116766e-19)
(0.2338606 1.9255671e-05 1.8761673e-19)
(0.21488574 1.22752e-05 3.0441892e-20)
(0.18132555 4.7234218e-06 -3.5040676e-20)
(0.30408466 -8.0145675e-06 2.735858e-18)
(0.30272185 -1.8051773e-05 3.2066032e-18)
(0.29973407 -1.7315856e-05 1.587157e-18)
(0.29533886 -8.3895436e-06 4.2731932e-19)
(0.28980995 3.9790169e-06 5.0687677e-19)
(0.28335875 1.5424572e-05 2.2377032e-19)
(0.27606809 2.3784825e-05 6.2388119e-20)
(0.26787825 2.8272392e-05 -7.4234239e-21)
(0.25855702 2.8860291e-05 1.6089158e-19)
(0.24759809 2.5927746e-05 3.0286253e-19)
(0.23393092 2.0104532e-05 5.2432358e-20)
(0.21499043 1.2644325e-05 1.3425575e-19)
(0.1814426 4.8067799e-06 6.4811236e-20)
(0.30431819 -5.1449433e-06 -3.4729272e-19)
(0.3028546 -1.1412634e-05 -7.0573182e-19)
(0.29971994 -8.5331521e-06 1.4154039e-19)
(0.29521955 7.8209769e-07 7.3868955e-19)
(0.28964857 1.2143103e-05 2.9094382e-19)
(0.28320331 2.202265e-05 4.5642273e-19)
(0.27594691 2.8765163e-05 7.695011e-19)
(0.26780565 3.1808749e-05 1.9148978e-19)
(0.25853789 3.1205237e-05 -1.6263328e-19)
(0.24763076 2.735178e-05 -4.5584581e-19)
(0.23400854 2.0864257e-05 -8.4928489e-20)
(0.21510011 1.2970591e-05 -8.3864643e-20)
(0.18156252 4.8782998e-06 5.4694681e-20)
(0.30445221 -2.2472445e-06 4.123319e-19)
(0.30290466 -4.7892587e-06 7.8574091e-19)
(0.2996534 -5.7471806e-08 -1.9379645e-19)
(0.29507686 9.3868376e-06 3.3523868e-19)
(0.28948321 1.9670511e-05 4.4922556e-19)
(0.28305385 2.8057756e-05 5.5483618e-19)
(0.27583604 3.3302631e-05 8.7975517e-19)
(0.2677444 3.5018148e-05 6.0888732e-19)
(0.25852929 3.3323394e-05 2.2686925e-20)
(0.24767222 2.8629871e-05 -1.5862454e-19)
(0.23409279 2.1539449e-05 1.2584823e-19)
(0.21521426 1.3255849e-05 -5.4441162e-20)
(0.18168496 4.9383128e-06 6.6964466e-21)
(0.30448759 5.8140334e-07 -4.5334558e-19)
(0.30287533 1.6331377e-06 3.4439597e-18)
(0.29953939 7.9403049e-06 5.8076354e-19)
(0.29491434 1.7334141e-05 1.1710422e-18)
(0.28931491 2.6550263e-05 7.1046596e-19)
(0.28291026 3.3548577e-05 5.9643202e-19)
(0.2757348 3.7416367e-05 -1.4678146e-20)
(0.26769361 3.7916109e-05 3.1950021e-19)
(0.25853035 3.5225944e-05 1.349393e-19)
(0.24772169 2.9768911e-05 5.3646883e-19)
(0.23418305 2.2133576e-05 2.4058088e-19)
(0.2153324 1.3501395e-05 3.8216097e-19)
(0.18180955 4.9869863e-06 1.0058314e-19)
(0.30442824 3.2380984e-06 4.4417528e-19)
(0.30277199 7.656894e-06 1.3882724e-18)
(0.29938292 1.5303874e-05 3.1324743e-18)
(0.29473444 2.4565204e-05 6.0875869e-19)
(0.28914434 3.2781496e-05 4.7129232e-19)
(0.28277222 3.8507894e-05 7.2134267e-19)
(0.27564244 4.1120193e-05 2.251229e-19)
(0.26765239 4.0514315e-05 2.5254535e-19)
(0.25854021 3.6921079e-05 1.7627238e-19)
(0.24777843 3.0773622e-05 4.25758e-19)
(0.23427872 2.2648746e-05 3.3279585e-20)
(0.21545406 1.3707814e-05 -3.2025173e-20)
(0.18193595 5.0242587e-06 8.1642823e-20)
(0.30428148 5.6355457e-06 4.4441742e-18)
(0.30260141 1.3122275e-05 1.7851517e-18)
(0.29918843 2.1930263e-05 1.9347773e-18)
(0.29453912 3.1047317e-05 3.933713e-19)
(0.28897192 3.8362442e-05 6.279928e-19)
(0.28263933 4.2943267e-05 2.3997462e-19)
(0.2755582 4.4423528e-05 1.6886802e-19)
(0.26761989 4.2820651e-05 4.436531e-19)
(0.25855808 3.8413907e-05 5.3962175e-19)
(0.24784174 3.1646512e-05 4.6607688e-19)
(0.23437921 2.3085656e-05 2.2907013e-19)
(0.21557877 1.3874934e-05 -7.3286254e-21)
(0.18206381 5.0498072e-06 1.4206362e-20)
(0.30405678 7.7205083e-06 1.403745e-18)
(0.30237113 1.7926614e-05 3.7010831e-18)
(0.29896016 2.7756662e-05 2.4404441e-18)
(0.29433004 3.6759318e-05 8.2019358e-19)
(0.28879784 4.3290761e-05 9.6812462e-19)
(0.2825111 4.6859337e-05 1.091125e-19)
(0.2754813 4.7332299e-05 3.0511419e-19)
(0.26759529 4.4839617e-05 2.3062009e-19)
(0.25858316 3.9706759e-05 5.8140001e-19)
(0.24791094 3.2388068e-05 2.8439957e-19)
(0.23448396 2.3443709e-05 3.7068296e-19)
(0.21570608 1.4001895e-05 1.9162445e-19)
(0.18219278 5.0630892e-06 4.8427444e-20)
(0.30376498 9.4676805e-06 -1.7817273e-18)
(0.30208914 2.2015428e-05 1.1547254e-18)
(0.29870223 3.2751827e-05 2.1920508e-18)
(0.29410867 4.1691319e-05 1.2918433e-18)
(0.2886222 4.7566155e-05 6.9603762e-19)
(0.28238699 5.0259298e-05 3.6077832e-19)