/*--------------------------------*- C++ -*----------------------------------*\
| =========                 |                                                 |
| \\      /  F ield         | OpenFOAM: The Open Source CFD Toolbox           |
|  \\    /   O peration     | Version:  2506                                  |
|   \\  /    A nd           | Website:  www.openfoam.com                      |
|    \\/     M anipulation  |                                                 |
\*---------------------------------------------------------------------------*/
FoamFile
{
    version     2.0;
    format      ascii;
    arch        "LSB;label=32;scalar=64";
    class       volScalarField;
    location    "7000/rock";
    object      T;
}
// * * * * * * * * * * * * * * * * * * * * * * * * * * * * * * * * * * * * * //

dimensions      [0 0 0 1 0 0 0];

internalField   nonuniform List<scalar> 
16000
(
317.71112
306.90696
301.06135
297.41583
294.93719
293.15135
291.8098
290.76959
289.94268
289.27197
288.71882
288.25619
287.86464
287.52984
287.241
286.98988
286.77006
286.57648
286.40511
286.25269
286.11655
285.99453
285.8848
285.78585
285.6964
285.61538
285.54185
285.47502
285.41421
285.35881
285.30828
285.26216
285.22001
285.18144
285.14605
285.11346
285.08325
285.05494
285.02784
285.00088
320.3904
309.62159
303.37942
299.37019
296.60374
294.59359
293.07536
291.8938
290.95203
290.18662
289.55438
289.02496
288.57643
288.1926
287.86124
287.57298
287.32053
287.09812
286.90116
286.72592
286.56936
286.429
286.30275
286.18889
286.08594
285.99268
285.90804
285.8311
285.76108
285.69729
285.63911
285.58601
285.53749
285.49309
285.45238
285.41492
285.38025
285.34785
285.31705
285.28697
321.91961
311.61848
305.28918
301.08015
298.11462
295.93121
294.26751
292.96468
291.92149
291.07071
290.36606
289.77474
289.2729
288.84281
288.47109
288.14738
287.86365
287.6135
287.39182
287.19448
287.0181
286.85989
286.71755
286.58912
286.47298
286.36773
286.2722
286.18534
286.10629
286.03426
285.96858
285.90862
285.85386
285.80376
285.75786
285.71569
285.67675
285.64052
285.6064
285.5737
322.89765
313.11793
306.85764
302.56372
299.47247
297.16219
295.38305
293.97896
292.84814
291.92173
291.15173
290.50372
289.95249
289.47918
289.06943
288.71213
288.39859
288.12188
287.87646
287.65782
287.46228
287.28678
287.1288
286.9862
286.8572
286.74026
286.63408
286.53752
286.44963
286.36954
286.2965
286.22984
286.16896
286.11331
286.06237
286.01564
285.97261
285.93279
285.89562
285.86057
323.58342
314.27783
308.15467
303.84882
300.68742
298.28934
296.4218
294.93536
293.73033
292.73801
291.90981
291.21049
290.61398
290.1006
289.65531
289.26639
288.92462
288.62263
288.35452
288.11544
287.90145
287.70926
287.53615
287.37981
287.23831
287.10999
286.99343
286.88742
286.79089
286.70292
286.6227
286.54949
286.48265
286.42159
286.36575
286.31462
286.26768
286.22446
286.18445
286.14721
324.09848
315.20249
309.23982
304.96525
301.7734
299.31865
297.38592
295.8342
294.56754
293.51867
292.63933
291.89407
291.25641
290.70622
290.22795
289.80946
289.44111
289.11519
288.82548
288.56688
288.33519
288.12696
287.93925
287.76963
287.61603
287.47667
287.35003
287.23481
287.12988
287.03423
286.947
286.86741
286.79477
286.72844
286.66786
286.61248
286.56179
286.51533
286.47263
286.43331
324.50512
315.95981
310.15991
305.94054
302.74542
300.25789
298.27917
296.67706
295.36018
294.26353
293.33978
292.55383
291.87914
291.29537
290.78673
290.34075
289.94751
289.59906
289.2889
289.01173
288.76316
288.53954
288.33781
288.1554
287.9901
287.84006
287.70365
287.5795
287.4664
287.36329
287.26925
287.18345
287.10516
287.03373
286.96855
286.90907
286.85477
286.8052
286.75993
286.71861
324.83804
316.59458
310.95052
306.79847
303.61805
301.11553
299.10625
297.46641
296.10942
294.97297
294.01114
293.18949
292.48176
291.86762
291.33117
290.8598
290.44341
290.07383
289.74439
289.44963
289.185
288.9467
288.73154
288.53684
288.36029
288.19993
288.05409
287.92129
287.80027
287.68992
287.58927
287.49744
287.41368
287.3373
287.26766
287.20422
287.14645
287.0939
287.04615
287.00288
325.11809
317.13699
311.63845
307.55878
304.40455
301.9
299.87232
298.20526
296.81693
295.64785
294.65374
293.8011
293.06412
292.4227
291.86098
291.36629
290.92845
290.53916
290.19165
289.88029
289.60043
289.34816
289.12019
288.91372
288.72636
288.55609
288.40115
288.26
288.13132
288.01397
287.90691
287.80924
287.72018
287.63899
287.56505
287.49778
287.43666
287.38123
287.33109
287.28592
325.35863
317.60801
312.24388
308.23761
305.11661
302.61929
300.58262
298.89695
297.48475
296.28934
295.26821
294.38891
293.62627
292.96052
292.37596
291.85998
291.40238
290.9948
290.63039
290.30345
290.00922
289.74371
289.50353
289.28583
289.08813
288.90835
288.74464
288.59545
288.45939
288.33527
288.22201
288.1187
288.0245
287.93868
287.86057
287.7896
287.72523
287.66702
287.61456
287.56754
325.56867
318.02259
312.78213
308.84803
305.7643
303.28069
301.24221
299.54488
298.11512
296.89888
295.85541
294.95341
294.16843
293.48114
292.87607
292.34076
291.86504
291.44056
291.06043
290.7189
290.41115
290.13312
289.88138
289.65298
289.44541
289.25652
289.08442
288.92749
288.78433
288.65367
288.53444
288.42568
288.32652
288.23621
288.15408
288.07953
288.01203
287.95112
287.89641
287.84757
325.75455
318.39165
313.265
309.40061
306.35621
303.89075
301.85588
300.15246
298.71037
297.47802
296.41636
295.49523
294.69097
293.98473
293.36136
292.80859
292.31633
291.8763
291.4816
291.12647
290.80604
290.51623
290.25355
290.015
289.79804
289.60045
289.42031
289.25598
289.10598
288.96905
288.84406
288.73003
288.62609
288.53145
288.44543
288.36742
288.29689
288.23337
288.17646
288.12584
325.92088
318.72338
313.70163
309.90392
306.89962
304.45526
302.42805
300.72293
299.27284
298.02841
296.95218
296.01513
295.19436
294.47157
293.83197
293.2635
292.75624
292.30197
291.89382
291.52605
291.19378
290.89291
290.61991
290.37176
290.14587
289.94
289.75219
289.58076
289.42422
289.28126
289.15074
289.03164
288.92309
288.82427
288.7345
288.65315
288.57969
288.51363
288.45458
288.40221
326.07114
319.02405
314.09925
310.36498
307.40067
304.9793
302.96271
301.25936
299.80482
298.55171
297.46407
296.51393
295.67917
294.94204
294.28813
293.70563
293.18481
292.71754
292.29703
291.91755
291.57427
291.26304
290.98034
290.72312
290.48878
290.27505
290.07994
289.90173
289.73892
289.59018
289.45435
289.33039
289.21739
289.11455
289.02116
288.93659
288.86028
288.79177
288.73063
288.67654
326.20796
319.29854
314.4636
310.78951
307.86457
305.46729
303.46348
301.76459
300.30849
299.04959
297.95324
296.99251
296.14602
295.39655
294.7301
294.13515
293.60212
293.12304
292.69121
292.30094
291.94742
291.62653
291.33474
291.069
290.82667
290.60548
290.40343
290.21877
290.04998
289.89571
289.75479
289.62615
289.50889
289.40218
289.3053
289.21761
289.13855
289.06765
289.00448
288.9487
326.33343
319.55071
314.79934
311.18226
308.29572
305.9231
303.93359
302.24123
300.78593
299.52363
298.42092
297.45179
296.59558
295.8356
295.15824
294.55226
294.00831
293.51856
293.07639
292.67621
292.31322
291.98334
291.68305
291.4093
291.15945
290.93121
290.72257
290.53178
290.35729
290.19774
290.05194
289.91883
289.79747
289.68704
289.5868
289.4961
289.41439
289.34117
289.27601
289.21858
326.44919
319.78366
315.11025
311.54717
308.69788
306.35007
304.37591
302.69169
301.23906
299.97537
298.86829
297.89268
297.02854
296.25969
295.5729
294.95724
294.40356
293.90419
293.45263
293.04336
292.67165
292.33343
292.02522
291.74397
291.48705
291.25216
291.03729
290.84067
290.66076
290.49618
290.34573
290.20833
290.08305
289.96903
289.86556
289.77196
289.68768
289.6122
289.54512
289.48605
326.55656
319.99991
315.39944
311.88753
309.07425
306.75114
304.79301
303.11814
301.66969
300.40626
299.29652
298.31609
297.44559
296.66935
295.97449
295.35037
294.78808
294.28008
293.82002
293.40245
293.02271
292.67679
292.36121
292.07296
291.8094
291.56826
291.3475
291.14537
290.96031
290.79094
290.63605
290.49456
290.36551
290.24807
290.14148
290.04509
289.95832
289.88066
289.81169
289.75103
326.65662
320.20155
315.66952
312.20613
309.42756
307.12885
305.18717
303.52253
302.07947
300.81768
299.70671
298.72291
297.84745
297.06512
296.36342
295.73197
295.16208
294.64639
294.17866
293.75355
293.36646
293.01343
292.69102
292.39624
292.12648
291.87946
291.65316
291.44582
291.25588
291.08196
290.92284
290.77743
290.64479
290.52405
290.41448
290.31539
290.22622
290.14645
290.07564
290.01341
326.75028
320.39029
315.92266
312.50534
309.76018
307.48543
305.5604
303.90664
302.46993
301.21091
300.09993
299.11399
298.2348
297.44756
296.74012
296.10237
295.52582
295.0033
294.52869
294.09673
293.70293
293.34336
293.01464
292.7138
292.43825
292.18572
291.95421
291.74195
291.54739
291.36915
291.20601
291.05688
290.9208
290.79691
290.68447
290.58279
290.4913
290.40947
290.33687
290.27311
326.83826
320.56759
316.1607
312.78717
310.07414
307.82284
305.9145
304.27208
302.84245
301.58712
300.47717
299.49016
298.60831
297.81721
297.10502
296.4619
295.87957
295.35101
294.87024
294.43212
294.0322
293.66665
293.3321
293.02564
292.74469
292.48701
292.25061
292.03372
291.8348
291.65248
291.48552
291.33284
291.19347
291.06657
290.95137
290.8472
290.75347
290.66966
290.59531
290.53005
326.92118
320.73465
316.3852
313.05335
310.37121
308.14279
306.25107
304.6203
303.19832
301.94744
300.83937
299.85222
298.96865
298.1746
297.45856
296.81091
296.22359
295.68973
295.20349
294.75981
294.35435
293.98333
293.64343
293.33177
293.04581
292.78333
292.54234
292.3211
292.11807
291.93188
291.7613
291.60524
291.46275
291.33297
291.21513
291.10857
291.01267
290.92693
290.85089
290.78414
326.99957
320.89252
316.5975
313.30537
310.65295
308.44678
306.57153
304.9526
303.53871
302.29288
301.18741
300.20091
299.31643
298.52026
297.80115
297.14975
296.55816
296.01968
295.52859
295.07995
294.66948
294.29347
293.94866
293.63221
293.34161
293.07465
292.82938
292.60406
292.39716
292.20732
292.03331
291.87405
291.72858
291.59605
291.47568
291.36681
291.26883
291.18123
291.10353
291.03533
327.07386
321.04209
316.79875
313.54455
310.92069
308.73617
306.87717
305.27016
303.86467
302.62438
301.52213
300.53694
299.65226
298.85469
298.13324
297.47876
296.88356
296.34109
295.84574
295.39267
294.9777
294.59716
294.24786
293.92701
293.63211
293.361
293.11173
292.88259
292.67205
292.47876
292.30151
292.13921
291.99091
291.85575
291.73297
291.62188
291.5219
291.43248
291.35317
291.28356
327.14445
321.18412
316.98997
313.772
311.17563
309.01213
307.16911
305.57403
304.17718
302.94283
301.84428
300.86099
299.97671
299.17837
298.45521
297.79829
297.20008
296.65419
296.15511
295.69812
295.2791
294.89447
294.54109
294.21619
293.91733
293.64236
293.38937
293.15666
292.94271
292.74618
292.56586
292.40069
292.2497
292.11203
291.98694
291.87373
291.77181
291.68064
291.59976
291.52876
327.21165
321.31929
317.17202
313.98873
311.41881
309.27572
307.44838
305.86519
304.47714
303.24901
302.15458
301.17367
300.29034
299.49179
298.76748
298.10867
297.508
296.9592
296.45689
295.99644
295.57382
295.18551
294.82841
294.49981
294.19731
293.91878
293.66233
293.42628
293.20913
293.00956
292.82635
292.65845
292.50491
292.36486
292.23755
292.12231
292.01852
291.92566
291.84326
291.7709
327.27574
321.44816
317.34567
314.1956
311.65117
309.52786
307.71589
306.14451
304.76534
303.54368
302.4537
301.47557
300.59366
299.79538
299.07042
298.41023
297.80758
297.25635
296.75127
296.2878
295.86198
295.47036
295.1099
294.77793
294.47208
294.19026
293.93061
293.69145
293.47132
293.26888
293.08296
292.91248
292.75651
292.6142
292.48478
292.36758
292.262
292.1675
292.08361
292.00992
327.33699
321.57127
317.51159
314.3934
311.87353
309.76941
307.97247
306.41277
305.04253
303.82751
302.74226
301.76726
300.88715
300.08957
299.36442
298.70328
298.09911
297.54589
297.03845
296.57235
296.14371
295.74913
295.38564
295.0506
294.7417
294.45685
294.19423
293.95219
293.72926
293.52414
293.33566
293.16275
293.00449
292.86001
292.72858
292.60951
292.5022
292.40612
292.32079
292.24579
327.3956
321.68904
317.67038
314.58281
312.08662
310.00112
308.21887
306.6707
305.30939
304.10113
303.02083
302.04926
301.17128
300.37478
299.64981
298.98815
298.38284
297.82802
297.31861
296.85025
296.41913
296.02193
295.65572
295.31791
295.0062
294.71858
294.45321
294.20849
293.98297
293.77534
293.58445
293.40925
293.24881
293.10229
292.96893
292.84807
292.7391
292.64148
292.55475
292.47848
327.45177
321.80189
317.82257
314.76443
312.2911
310.22366
308.45575
306.91895
305.56654
304.36513
303.28995
302.32203
301.44649
300.65139
299.92696
299.26511
298.65904
298.10297
297.59194
297.12166
296.68839
296.28887
295.92022
295.57991
295.26566
294.97549
294.7076
294.4604
294.23245
294.02248
293.82933
293.65198
293.48948
293.34101
293.20582
293.08324
292.97267
292.87358
292.78548
292.70796
327.50567
321.91016
317.96863
314.93882
312.48756
310.43765
308.68374
307.15811
305.81455
304.62004
303.55011
302.58605
301.71319
300.91976
300.19617
299.53446
298.92796
298.37097
297.85863
297.38674
296.95162
296.55006
296.17925
295.83668
295.52013
295.22763
294.95742
294.70793
294.47773
294.26557
294.07031
293.89092
293.72648
293.57616
293.43922
293.315
293.20289
293.10237
293.01295
292.9342
327.55746
322.01418
318.10899
315.10648
312.67654
310.64363
308.90338
307.38873
306.05394
304.86635
303.80177
302.84173
301.97175
301.18025
300.45777
299.79649
299.18983
298.63221
298.11886
297.64564
297.20894
296.80562
296.43289
296.0883
295.76967
295.47505
295.20272
294.95111
294.71883
294.50463
294.30738
294.12608
293.9598
293.80773
293.66913
293.54334
293.42975
293.32784
293.23713
293.1572
327.60728
322.11423
318.24402
315.26783
312.85852
310.8421
309.11518
307.61131
306.28519
305.10451
304.04536
303.08947
302.22255
301.43318
300.71205
300.05144
299.44489
298.88691
298.37281
297.89852
297.4605
297.05565
296.68124
296.33485
296.01435
295.71781
295.44353
295.18997
294.95576
294.73966
294.54056
294.35746
294.18945
294.03572
293.89554
293.76825
293.65324
293.54999
293.45803
293.37692
327.65526
322.21058
318.37407
315.42329
313.03393
311.03353
309.3196
307.8263
306.50875
305.33497
304.28128
303.32964
302.46593
301.67888
300.95929
300.29957
299.69336
299.13527
298.62065
298.14553
297.70642
297.30027
296.92439
296.57642
296.25424
295.95596
295.6799
295.42455
295.18856
294.97069
294.76987
294.58508
294.41544
294.26014
294.11845
293.98971
293.87334
293.76881
293.67563
293.59338
327.70151
322.30344
318.49945
315.57321
313.20318
311.21833
309.51706
308.03412
306.72502
305.55809
304.5099
303.56259
302.70221
301.91762
301.19976
300.54113
299.93548
299.37747
298.86257
298.38683
297.94684
297.53959
297.16245
296.81308
296.4894
296.18955
295.91188
295.65489
295.41725
295.19775
294.99531
294.80895
294.63777
294.48098
294.33785
294.20775
294.09006
293.98428
293.88992
293.80655
327.74613
322.39304
318.62044
315.71793
313.36661
311.39687
309.70795
308.23515
306.93438
305.77426
304.73156
303.78864
302.93169
302.1497
301.43371
300.77635
300.17143
299.61371
299.09871
298.62256
298.18188
297.77374
297.39552
297.04493
296.71992
296.41866
296.13952
295.88104
295.64188
295.42087
295.21692
295.02907
294.85645
294.69825
294.55376
294.42234
294.3034
294.19641
294.1009
294.01643
327.78922
322.47956
318.73729
315.85774
313.52456
311.5695
309.89263
308.42975
307.13718
305.98379
304.9466
304.0081
303.15465
302.37537
301.6614
301.00545
300.40143
299.84417
299.32925
298.85286
298.41168
298.00281
297.62368
297.27204
296.94585
296.64334
296.36288
296.10303
295.86248
295.64007
295.43472
295.24549
295.0715
294.91197
294.76619
294.63351
294.51336
294.4052
294.30857
294.22304
327.83087
322.56318
318.85025
315.99292
313.67733
311.73654
310.07141
308.61825
307.33374
306.18702
305.1553
304.22125
303.37137
302.59488
301.88304
301.22864
300.62567
300.06902
299.55434
299.07788
298.63636
298.22692
297.84704
297.49449
297.16729
296.86366
296.58201
296.32091
296.07909
295.85538
295.64874
295.45821
295.28294
295.12215
294.97513
294.84126
294.71994
294.61066
294.51295
294.42637
327.87115
322.64406
318.95951
316.12372
313.82519
311.89828
310.24459
308.80095
307.52436
306.38422
305.35795
304.42837
303.58209
302.80847
302.09886
301.44612
300.84432
300.28843
299.77414
299.29775
298.85603
298.44618
298.0657
297.71239
297.3843
297.07968
296.79696
296.53474
296.29175
296.06685
295.859
295.66726
295.49078
295.3288
295.18062
295.0456
294.92316
294.8128
294.71403
294.62643
327.91014
322.72234
319.06529
316.25037
313.9684
312.05499
310.41246
308.97812
307.70931
306.57567
305.5548
304.62969
303.78706
303.01637
302.30906
301.65809
301.05758
300.50256
299.98878
299.5126
299.07083
298.66069
298.27974
297.9258
297.59695
297.29146
297.0078
296.74456
296.50051
296.27451
296.06553
295.87267
295.69506
295.53196
295.38266
295.24654
295.12304
295.01162
294.91182
294.82322
327.94791
322.79817
319.16776
316.37308
314.1072
312.20691
310.57527
309.15003
307.88886
306.76163
305.74612
304.82545
303.98649
303.21878
302.51385
301.86472
301.2656
300.71156
300.19842
299.72257
299.28087
298.87057
298.48927
298.13482
297.80532
297.49908
297.21457
296.95042
296.7054
296.47839
296.26839
296.07446
295.8958
295.73163
295.58128
295.44411
295.31958
295.20714
295.10635
295.01677
327.98451
322.87166
319.26708
316.49204
314.24179
312.35429
310.73326
309.31692
308.06324
306.94232
305.93211
305.01589
304.1806
303.4159
302.7134
302.0662
301.46855
300.91559
300.40319
299.92777
299.48625
299.07591
298.69437
298.33952
298.00949
297.7026
297.41735
297.15238
296.90648
296.67855
296.46758
296.27268
296.09302
295.92785
295.77649
295.63833
295.5128
295.39939
295.29763
295.2071
328.02001
322.94293
319.36341
316.60744
314.37239
312.49732
310.88665
309.47901
308.23268
307.11797
306.11301
305.20119
304.36959
303.60793
302.90791
302.26269
301.66659
301.1148
300.60322
300.12834
299.6871
299.27682
298.89514
298.54
298.20953
297.90209
297.61619
297.35049
297.1038
296.87502
296.66317
296.46735
296.28676
296.12064
295.96833
295.82922
295.70273
295.58837
295.48567
295.3942
328.05445
323.01209
319.45689
316.71944
314.49916
312.63621
311.03563
309.63651
308.39738
307.28879
306.28901
305.38157
304.55364
303.79504
303.09753
302.45435
301.85986
301.30931
300.79864
300.32439
299.88352
299.47338
299.09167
298.73633
298.40552
298.09761
297.81115
297.5448
297.29739
297.06785
296.85518
296.65852
296.47704
296.31004
296.15682
296.01679
295.88939
295.77411
295.6705
295.57812
328.08789
323.07922
319.54765
316.8282
314.62229
312.77113
311.18041
309.78961
308.55754
307.45497
306.4603
305.5572
304.73293
303.9774
303.28243
302.64133
302.04851
301.49926
300.98958
300.51603
300.07561
299.66572
299.28405
298.92859
298.59752
298.28923
298.00229
297.73537
297.48732
297.25707
297.04366
296.8462
296.66391
296.49606
296.34199
296.20109
296.0728
295.95664
295.85213
295.75886
328.12037
323.14443
319.63581
316.93386
314.74193
312.90227
311.32117
309.93849
308.71335
307.61668
306.62707
305.72826
304.90764
304.15517
303.46277
302.82378
302.23267
301.68479
301.17616
300.70337
300.26348
299.8539
299.47236
299.11686
298.78561
298.47703
298.18967
297.92226
297.67363
297.44275
297.22864
297.03045
296.8474
296.67875
296.52386
296.38212
296.253
296.13598
296.0306
295.93646
328.15194
323.2078
319.72149
317.03655
314.85823
313.02977
311.45805
310.08333
308.86498
307.77411
306.78947
305.89491
305.07791
304.32851
303.63868
303.00183
302.41248
301.866
301.35848
300.88653
300.44723
300.03804
299.6567
299.30123
298.96987
298.66105
298.37335
298.10551
297.85638
297.62491
297.41018
297.21131
297.02754
296.85814
296.70247
296.55994
296.43
296.31215
296.20593
296.11094
328.18262
323.2694
319.80478
317.1364
314.97134
313.15379
311.59123
310.22428
309.01257
307.92741
306.94767
306.05731
305.2439
304.49756
303.81031
303.17563
302.58806
302.04303
301.53666
301.0656
300.62696
300.21821
299.83713
299.48176
299.15036
298.84137
298.5534
298.28519
298.0356
297.80362
297.5883
297.38881
297.20436
297.03426
296.87786
296.73456
296.60383
296.48518
296.37815
296.28232
328.21246
323.32931
319.88579
317.23353
315.08137
313.27446
311.72084
310.3615
309.1563
308.07674
307.10181
306.21561
305.40576
304.66246
303.9778
303.34528
302.75953
302.21599
301.71081
301.24069
300.80276
300.39451
300.01375
299.65854
299.32715
299.01806
298.72987
298.46134
298.21136
297.97891
297.76307
297.56299
297.37792
297.20715
297.05005
296.90602
296.77454
296.65511
296.54728
296.45064
328.2415
323.38759
319.96461
317.32804
315.18845
313.39191
311.84703
310.49511
309.29629
308.22223
307.25205
306.36994
305.56361
304.82334
304.14126
303.51093
302.927
302.38498
301.88104
301.4119
300.97472
300.56702
300.18663
299.83163
299.50032
299.19117
298.90282
298.63404
298.38371
298.15084
297.93452
297.7339
297.54824
297.37684
297.21907
297.07435
296.94215
296.82196
296.71336
296.61592
328.26975
323.44432
320.04133
317.42003
315.29269
313.50628
311.96991
310.62527
309.43269
308.36402
307.3985
306.52043
305.71759
304.98032
304.30082
303.67268
303.0906
302.55012
302.04744
301.57931
301.14292
300.73582
300.35586
300.00112
299.66993
299.36078
299.07232
298.80332
298.5527
298.31946
298.10269
297.90158
297.71538
297.54338
297.38498
297.23959
297.10668
296.98578
296.87642
296.7782
328.29726
323.49954
320.11602
317.5096
315.3942
313.61766
312.08962
310.75208
309.56562
308.50223
307.5413
306.66721
305.86782
305.13353
304.45659
303.83064
303.25042
302.71149
302.2101
301.74303
301.30747
300.90101
300.5215
300.16708
299.83605
299.52695
299.23841
298.96925
298.71838
298.48481
298.26765
298.06608
297.87936
297.7068
297.5478
297.40177
297.26819
297.14658
297.03649
296.93751
328.32406
323.55333
320.18876
317.59684
315.49308
313.72618
312.20626
310.87566
309.69519
308.637
307.68058
306.8104
306.01442
305.28308
304.60868
303.98492
303.40656
302.86921
302.36913
301.90313
301.46844
301.06265
300.68365
300.32957
299.99875
299.68973
299.40117
299.13189
298.8808
298.64694
298.42942
298.22742
298.04023
297.86715
297.70757
297.56093
297.4267
297.30441
297.1936
297.09388
328.35016
323.60572
320.25962
317.68183
315.58943
313.83192
312.31994
310.99614
309.82153
308.76842
307.81643
306.95012
306.1575
305.42908
304.75721
304.13563
303.55913
303.02337
302.52462
302.05971
301.62591
301.22082
300.84236
300.48866
300.15809
299.84919
299.56065
299.29128
299.04002
298.8059
298.58805
298.38567
298.19803
298.02445
297.86433
297.7171
297.58225
297.45929
297.34779
297.24734
328.37559
323.65676
320.32867
317.76466
315.68332
313.93499
312.43076
311.1136
309.94473
308.89661
307.94897
307.08646
306.29715
305.57162
304.90227
304.28285
303.70823
303.17405
302.67664
302.21285
301.77996
301.37561
300.99771
300.64442
300.31414
300.00539
299.7169
299.44748
299.19608
298.96174
298.7436
298.54086
298.3528
298.17876
298.01812
297.87033
297.73488
297.61128
297.4991
297.39794
328.40038
323.70652
320.39597
317.84539
315.77485
314.03547
312.53882
311.22815
310.0649
309.02168
308.07831
307.21953
306.43349
305.71082
305.04395
304.4267
303.85393
303.32134
302.82528
302.36263
301.93068
301.52708
301.14976
300.79693
300.46695
300.1584
299.86998
299.60054
299.34903
299.11451
298.89611
298.69304
298.5046
298.33011
298.16898
298.02065
297.88461
297.76039
297.64756
297.5457
328.42454
323.75502
320.46158
317.9241
315.8641
314.13346
312.64421
311.33989
310.18214
309.14371
308.20453
307.34943
306.56662
305.84676
305.18235
304.56724
303.99633
303.46534
302.97064
302.50913
302.07813
301.6753
301.2986
300.94623
300.6166
300.30826
300.01995
299.75053
299.49894
299.26426
299.04562
298.84226
298.65345
298.47854
298.31694
298.1681
298.0315
297.90668
297.7932
297.69066
328.44811
323.80231
320.52555
318.00086
315.95114
314.22903
312.74701
311.4489
310.29654
309.2628
308.32774
307.47625
306.69661
305.97954
305.31757
304.70458
304.13551
303.60611
303.11278
302.65242
302.22238
301.82035
301.44429
301.09241
300.76313
300.45504
300.16687
299.89748
299.64584
299.41103
299.19219
298.98855
298.7994
298.6241
298.46206
298.31272
298.17557
298.05017
297.93606
297.83286
328.47109
323.84844
320.58795
318.07572
316.03604
314.32226
312.8473
311.55527
310.40817
309.37904
308.44802
307.60008
306.82356
306.10924
305.44968
304.8388
304.27156
303.74375
303.25178
302.79258
302.36352
301.96229
301.58688
301.23552
300.90662
300.5988
300.31079
300.04146
299.7898
299.55487
299.33585
299.13196
298.9425
298.76683
298.60436
298.45454
298.31688
298.1909
298.07619
297.97234
328.49351
323.89343
320.64882
318.14875
316.11886
314.41323
312.94517
311.65907
310.51714
309.49252
308.56546
307.72101
306.94756
306.23594
305.57876
304.96997
304.40455
303.87832
303.38771
302.92968
302.5016
302.10119
301.72645
301.37561
301.04712
300.73959
300.45176
300.18252
299.93085
299.69584
299.47666
299.27254
299.08278
298.90676
298.74389
298.59361
298.45544
298.32892
298.21361
298.10912
328.51538
323.93732
320.7082
318.22
316.19968
314.50199
313.04068
311.76039
310.62351
309.60331
308.68014
307.83911
307.06869
306.35973
305.7049
305.09817
304.53456
304.0099
303.52065
303.06379
302.6367
302.23712
301.86306
301.51277
301.1847
300.87746
300.58984
300.3207
300.06905
299.83398
299.61465
299.41033
299.2203
299.04395
298.88068
298.72997
298.59132
298.46426
298.34837
298.24326
328.53672
323.98015
320.76614
318.28954
316.27855
314.58863
313.13391
311.8593
310.72736
309.71149
308.79213
307.95446
307.18701
306.48069
305.82817
305.22348
304.66166
304.13857
303.65067
303.19497
302.76888
302.37013
301.99676
301.64703
301.31939
301.01248
300.72507
300.45606
300.20445
299.96933
299.74989
299.54537
299.35509
299.17843
299.01479
298.86366
298.72453
298.59696
298.48051
298.37479
328.55755
324.02195
320.8227
318.3574
316.35553
314.67319
313.22492
311.95586
310.82876
309.81713
308.90151
308.06715
307.30262
306.59888
305.94865
305.34597
304.78593
304.26438
303.77783
303.3233
302.8982
302.5003
302.12762
301.77846
301.45127
301.1447
300.85752
300.58865
300.33709
300.10195
299.8824
299.67771
299.4872
299.31024
299.14625
298.99471
298.85513
298.72705
298.61005
298.50374
328.57788
324.06275
320.8779
318.42365
316.43068
314.75575
313.31377
312.05015
310.92778
309.9203
309.00835
308.17723
307.41557
306.71438
306.0664
305.46571
304.90742
304.38741
303.90221
303.44883
303.02473
302.62767
302.2557
301.90711
301.58038
301.27416
300.98724
300.71852
300.46703
300.23187
300.01224
299.8074
299.61667
299.43943
299.27511
299.12318
298.98315
298.85458
298.73705
298.63016
328.59773
324.10258
320.93178
318.48832
316.50405
314.83636
313.40053
312.14222
311.02448
310.02108
309.11272
308.28478
307.52594
306.82725
306.18149
305.58277
305.02621
304.50772
304.02385
303.57163
303.14853
302.75231
302.38105
302.03305
301.70679
301.40093
301.11426
300.84571
300.59431
300.35916
300.13946
299.93447
299.74354
299.56603
299.40139
299.24909
299.10864
298.97959
298.86153
298.75407
328.61711
324.14147
320.9844
318.55146
316.57568
314.91507
313.48526
312.23215
311.11894
310.11952
309.21468
308.38986
307.6338
306.93757
306.29399
305.69721
305.14236
304.62538
304.14283
303.69176
303.26965
302.87428
302.50373
302.15632
301.83054
301.52504
301.23865
300.97029
300.71897
300.48384
300.26408
300.05898
299.86785
299.6901
299.52515
299.37248
299.23162
299.10211
298.98354
298.87553
328.63603
324.17944
321.03577
318.61312
316.64564
314.99193
313.56801
312.31998
311.21121
310.21569
309.3143
308.49254
307.7392
307.04539
306.40397
305.80909
305.25594
304.74045
304.2592
303.80928
303.38815
302.99363
302.6238
302.27698
301.95168
301.64656
301.36045
301.09228
300.84107
300.60597
300.38617
300.18095
299.98965
299.81166
299.64642
299.4934
299.35214
299.22218
299.10312
298.99456
328.65451
324.21651
321.08593
318.67333
316.71396
315.067
313.64883
312.40577
311.30134
310.30965
309.41164
308.59289
307.84221
307.15078
306.51147
305.91848
305.36699
304.85298
304.37303
303.92424
303.50409
303.11041
302.7413
302.39508
302.07026
301.76554
301.47971
301.21174
300.96066
300.72559
300.50576
300.30044
300.10898
299.93077
299.76524
299.61189
299.47024
299.33985
299.2203
299.11121
328.67256
324.25272
321.13493
318.73213
316.78068
315.14033
313.72778
312.48958
311.3894
310.40145
309.50675
308.69094
307.94289
307.2538
306.61657
306.02543
305.47559
304.96303
304.48436
304.03669
303.61752
303.22469
302.85629
302.51067
302.18634
301.88201
301.59648
301.32872
301.07776
300.84275
300.6229
300.41749
300.22588
300.04745
299.88166
299.72799
299.58596
299.45514
299.33512
299.22551
328.69018
324.28809
321.18278
318.78957
316.84586
315.21196
313.8049
312.57145
311.47543
310.49115
309.5997
308.78678
308.0413
307.3545
306.71932
306.13
305.58178
305.07066
304.59326
304.1467
303.7285
303.3365
302.96882
302.6238
302.29997
301.99603
301.71081
301.44326
301.19244
300.95749
300.73763
300.53214
300.34039
300.16176
299.99571
299.84172
299.69934
299.5681
299.44762
299.33751
328.7074
324.32263
321.22952
318.84568
316.90952
315.28193
313.88025
312.65145
311.5595
310.5788
309.69053
308.88044
308.13748
307.45294
306.81977
306.23225
305.68562
305.17592
304.69978
304.25432
303.83708
303.44591
303.07894
302.73452
302.41119
302.10764
301.82273
301.55541
301.30473
301.06985
300.84998
300.64443
300.45255
300.27373
300.10743
299.95315
299.81041
299.67877
299.55784
299.44723
328.72422
324.35638
321.27518
318.90048
316.97172
315.35029
313.95386
312.72961
311.64164
310.66445
309.7793
308.97198
308.2315
307.54917
306.91798
306.33223
305.78717
305.27887
304.80396
304.35959
303.94331
303.55296
303.1867
302.84288
302.52004
302.2169
301.9323
301.6652
301.41468
301.17987
300.96002
300.75441
300.5624
300.3834
300.21687
300.06229
299.91921
299.78718
299.66581
299.55472
328.74065
324.38934
321.31979
318.95403
317.03248
315.41707
314.02578
312.80598
311.72191
310.74816
309.86605
309.06146
308.32341
307.64325
307.014
306.42998
305.88648
305.37955
304.90586
304.46257
304.04723
303.65771
303.29215
302.94892
302.62658
302.32384
302.03956
301.7727
301.52233
301.2876
301.06776
300.8621
300.66998
300.49081
300.32405
300.1692
300.02578
299.89338
299.77158
299.66001
328.7567
324.42155
321.36337
319.00634
317.09185
315.48233
314.09606
312.88061
311.80035
310.82996
309.95085
309.14891
308.41325
307.73522
307.10788
306.52557
305.98359
305.47802
305.00553
304.56331
304.1489
303.76019
303.39533