/*--------------------------------*- C++ -*----------------------------------*\
| =========                 |                                                 |
| \\      /  F ield         | OpenFOAM: The Open Source CFD Toolbox           |
|  \\    /   O peration     | Version:  2506                                  |
|   \\  /    A nd           | Website:  www.openfoam.com                      |
|    \\/     M anipulation  |                                                 |
\*---------------------------------------------------------------------------*/
FoamFile
{
    version     2.0;
    format      ascii;
    arch        "LSB;label=32;scalar=64";
    class       volScalarField;
    location    "10000/water";
    object      epsilon;
}
// * * * * * * * * * * * * * * * * * * * * * * * * * * * * * * * * * * * * * //

dimensions      [0 2 -3 0 0 0 0];

internalField   nonuniform List<scalar> 
1000
(
7.2399316e-05
7.2397808e-05
7.2397502e-05
7.2398682e-05
7.2424146e-05
7.2686938e-05
7.4736184e-05
8.8973295e-05
0.00019794853
0.0013048048
4.7739543e-05
4.7745807e-05
4.7746167e-05
4.7748745e-05
4.7810065e-05
4.8371229e-05
5.2145896e-05
7.5319316e-05
0.00023607337
0.0016574915
3.3261229e-05
3.326441e-05
3.3263962e-05
3.3272039e-05
3.3396639e-05
3.4348944e-05
3.9973162e-05
7.1502195e-05
0.00026550017
0.0016622
2.4212884e-05
2.4213778e-05
2.421353e-05
2.4236018e-05
2.4468828e-05
2.5979964e-05
3.4086697e-05
7.6375277e-05
0.00030233602
0.0015600258
1.8263229e-05
1.8263302e-05
1.8265922e-05
1.8318446e-05
1.8730721e-05
2.1090713e-05
3.2935551e-05
9.0423022e-05
0.00035053525
0.0014605596
1.4183053e-05
1.4183388e-05
1.4193787e-05
1.4301413e-05
1.5003317e-05
1.8678146e-05
3.6167921e-05
0.0001133769
0.00040230434
0.001394416
1.1285033e-05
1.1287109e-05
1.1313191e-05
1.1514087e-05
1.2672051e-05
1.8360638e-05
4.3854095e-05
0.00014255056
0.00044702307
0.0013593134
9.1651308e-06
9.1712237e-06
9.2251472e-06
9.5765175e-06
1.1437671e-05
2.0107202e-05
5.5828197e-05
0.00017322861
0.00047957537
0.0013440708
7.5754963e-06
7.5890768e-06
7.6892453e-06
8.2761044e-06
1.1198217e-05
2.4041223e-05
7.1186956e-05
0.00020099028
0.00050080712
0.0013390504
6.3585386e-06
6.3848727e-06
6.5589458e-06
7.5064237e-06
1.1984529e-05
3.0236101e-05
8.827732e-05
0.00022355899
0.00051393013
0.0013385662
5.4111025e-06
5.4581715e-06
5.7474941e-06
7.2369312e-06
1.3906676e-05
3.851542e-05
0.00010524307
0.00024078287
0.00052197882
0.0013399581
4.6642398e-06
4.7441301e-06
5.2100528e-06
7.4969456e-06
1.7086997e-05
4.8355532e-05
0.00012068231
0.00025359529
0.00052708043
0.0013422097
4.0714678e-06
4.2024401e-06
4.9349808e-06
8.3622619e-06
2.1575449e-05
5.8975478e-05
0.00013393056
0.00026313407
0.00053055265
0.0013450163
3.6019036e-06
3.8114132e-06
4.9402444e-06
9.9351133e-06
2.7272213e-05
6.9567086e-05
0.0001449263
0.00027035436
0.00053316282
0.0013483151
3.2363933e-06
3.5653608e-06
5.2715533e-06
1.2311455e-05
3.3901705e-05
7.9510731e-05
0.00015392451
0.00027595636
0.00053534092
0.0013520945
2.9656643e-06
3.4742244e-06
5.9984121e-06
1.5537507e-05
4.1062753e-05
8.8461017e-05
0.00016127362
0.00028042541
0.0005373167
0.0013563339
2.7900131e-06
3.5645541e-06
7.2040709e-06
1.9569973e-05
4.8330069e-05
9.6307025e-05
0.00016730376
0.0002840891
0.00053917756
0.0013609721
2.7202652e-06
3.8804158e-06
8.9663873e-06
2.4261423e-05
5.5350004e-05
0.00010308377
0.00017229227
0.00028715781
0.00054093682
0.0013659395
2.7797378e-06
4.4819603e-06
1.1330791e-05
2.9383036e-05
6.1887465e-05
0.00010889372
0.00017645196
0.00028975383
0.00054267249
0.0013711897
3.0065658e-06
5.4386918e-06
1.4283596e-05
3.4675035e-05
6.7820851e-05
0.00011385661
0.00017993854
0.00029198037
0.00054443445
0.0013766837
3.4547911e-06
6.8148528e-06
1.7738621e-05
3.9899736e-05
7.3111867e-05
0.00011808673
0.00018285393
0.00029394161
0.00054623666
0.0013823793
4.1911554e-06
8.6476068e-06
2.1546244e-05
4.4874739e-05
7.7769189e-05
0.00012165883
0.00018531793
0.00029569753
0.00054807404
0.0013882301
5.2835973e-06
1.0924868e-05
2.5521745e-05
4.9478051e-05
8.1803684e-05
0.00012466942
0.00018741284
0.00029728403
0.00054993274
0.0013941876
6.7799282e-06
1.3574418e-05
2.9480254e-05
5.3622556e-05
8.5253112e-05
0.00012719929
0.00018919517
0.000298721
0.00055179393
0.0014002015
8.6832307e-06
1.6474047e-05
3.3249978e-05
5.7259506e-05
8.8167022e-05
0.00012930767
0.00019070223
0.0003000167
0.00055363506
0.0014062195
1.0937801e-05
1.9464199e-05
3.6694096e-05
6.037715e-05
9.0586574e-05
0.00013103648
0.00019195667
0.00030117053
0.00055543025
0.0014121855
1.3423242e-05
2.23843e-05
3.9726946e-05
6.2977844e-05
9.2544744e-05
0.00013241417
0.00019297016
0.00030217515
0.00055715061
0.0014180382
1.5988091e-05
2.5103489e-05
4.2303151e-05
6.5074405e-05
9.4068669e-05
0.00013345986
0.0001937468
0.0003030186
0.00055876494
0.0014237103
1.8484527e-05
2.7531394e-05
4.4410717e-05
6.6689277e-05
9.5183197e-05
0.00013418767
0.00019428682
0.00030368706
0.00056024152
0.0014291287
2.0793667e-05
2.961776e-05
4.6063571e-05
6.7854336e-05
9.5914524e-05
0.00013461104
0.00019459045
0.00030416798
0.00056155071
0.0014342182
2.2836482e-05
3.1345726e-05
4.7294062e-05
6.8609996e-05
9.6292888e-05
0.00013474639
0.0001946614
0.0003044533
0.00056266811
0.0014389065
2.4572749e-05
3.2723041e-05
4.8145997e-05
6.9003251e-05
9.6353744e-05
0.00013461547
0.00019450953
0.00030454212
0.00056357754
0.0014431302
2.5993467e-05
3.3773727e-05
4.866881e-05
6.9084996e-05
9.6137414e-05
0.00013424623
0.00019415208
0.00030444209
0.00056427282
0.001446841
2.7111454e-05
3.453126e-05
4.8913167e-05
6.8907204e-05
9.568761e-05
0.00013367214
0.00019361354
0.00030416946
0.00056475829
0.0014500094
2.7952839e-05
3.5033479e-05
4.892797e-05
6.8520454e-05
9.5049399e-05
0.00013293066
0.00019292424
0.00030374778
0.00056504781
0.0014526272
2.8550507e-05
3.5319049e-05
4.8758532e-05
6.7972062e-05
9.4267117e-05
0.000132061
0.00019211817
0.00030320576
0.00056516276
0.0014547061
2.8939544e-05
3.5425177e-05
4.844562e-05
6.7304864e-05
9.3382585e-05
0.00013110204
0.00019123063
0.00030257471
0.0005651295
0.0014562752
2.9154353e-05
3.5386257e-05
4.8025079e-05
6.6556571e-05
9.2433779e-05
0.0001300904
0.00019029592
0.00030188608
0.0005649767
0.0014573774
2.9226982e-05
3.5233173e-05
4.7527841e-05
6.575956e-05
9.1453995e-05
0.00012905901
0.00018934558
0.00030116934
0.00056473294
0.0014580646
2.9186286e-05
3.4993042e-05
4.6980143e-05
6.4940986e-05
9.0471468e-05
0.00012803625
0.00018840704
0.00030045049
0.0005644249
0.0014583936
2.9057607e-05
3.4689239e-05
4.6403888e-05
6.4123091e-05
8.9509335e-05
0.00012704549
0.00018750296
0.00029975113
0.00056407614
0.0014584225
2.8862783e-05
3.4341584e-05
4.581705e-05
6.3323638e-05
8.8585871e-05
0.00012610509
0.00018665099
0.00029908819
0.00056370646
0.0014582076
2.8620339e-05
3.3966637e-05
4.5234117e-05
6.2556399e-05
8.7714886e-05
0.00012522866
0.00018586396
0.00029847398
0.00056333184
0.0014578013
2.8345769e-05
3.3578018e-05
4.4666516e-05
6.1831661e-05
8.6906231e-05
0.00012442548
0.00018515025
0.00029791656
0.00056296443
0.0014572511
2.8051857e-05
3.3186755e-05
4.4123024e-05
6.1156713e-05
8.6166307e-05
0.00012370107
0.00018451435
0.00029742009
0.00056260868
0.0014565954
2.7749003e-05
3.280161e-05
4.3610149e-05
6.0536321e-05
8.5498648e-05
0.00012305786
0.00018395768
0.00029698473
0.0005622628
0.0014558673
2.7445541e-05
3.2429394e-05
4.3132477e-05
5.9973161e-05
8.4904459e-05
0.00012249575
0.00018347849
0.00029660437
0.00056193981
0.0014550991
2.7148026e-05
3.2075251e-05
4.2692998e-05
5.9468216e-05
8.4383048e-05
0.0001220123
0.00018307005
0.00029628032
0.00056164629
0.0014543181
2.6861508e-05
3.1742927e-05
4.2293388e-05
5.9021119e-05
8.3932087e-05
0.00012160127
0.0001827295
0.00029601122
0.00056138491
0.0014535461
2.6589772e-05
3.1435022e-05
4.1934326e-05
5.8630271e-05
8.3546447e-05
0.00012125857
0.0001824527
0.00029579373
0.00056115601
0.0014527994
2.6335582e-05
3.1153214e-05
4.1615288e-05
5.8292269e-05
8.3222239e-05
0.00012097936
0.00018223445
0.00029562349
0.00056095868
0.00145209
2.6100733e-05
3.0898057e-05
4.1334768e-05
5.8004132e-05
8.2955031e-05
0.00012075818
0.00018206897
0.00029549561
0.00056079127
0.0014514265
2.5886121e-05
3.066944e-05
4.1091091e-05
5.7762525e-05
8.2740036e-05
0.00012058927
0.00018195028
0.0002954051
0.00056065178
0.0014508144
2.5692101e-05
3.0466845e-05
4.0882267e-05
5.7563856e-05
8.2572269e-05
0.00012046676
0.0001818724
0.00029534699
0.00056053799
0.0014502573
2.5518606e-05
3.028941e-05
4.0706061e-05
5.7404368e-05
8.2446678e-05
0.00012038483
0.00018182953
0.00029531651
0.0005604475
0.0014497569
2.5365221e-05
3.0135997e-05
4.0560051e-05
5.7280224e-05
8.2358253e-05
0.00012033784
0.00018181614
0.00029530911
0.00056037777
0.0014493134
2.5231254e-05
3.0005246e-05
4.0441693e-05
5.7187585e-05
8.2302118e-05
0.0001203204
0.00018182705
0.00029532055
0.00056032621
0.0014489258
2.5115793e-05
2.9895633e-05
4.0348378e-05
5.7122678e-05
8.2273611e-05
0.0001203275
0.00018185752
0.00029534698
0.00056029031
0.001448592
2.5017755e-05
2.9805516e-05
4.0277488e-05
5.7081854e-05
8.2268342e-05
0.00012035451
0.00018190325
0.00029538496
0.0005602677
0.0014483087
2.4935932e-05
2.9733188e-05
4.022644e-05
5.7061643e-05
8.2282243e-05
0.00012039726
0.00018196047
0.00029543148
0.00056025628
0.0014480725
2.4869036e-05
2.9676909e-05
4.019273e-05
5.7058785e-05
8.2311595e-05
0.000120452
0.00018202589
0.00029548401
0.00056025423
0.0014478793
2.481573e-05
2.9634948e-05
4.0173963e-05
5.7070257e-05
8.235304e-05
0.00012051546
0.00018209667
0.00029554039
0.00056025995
0.0014477251
2.4774659e-05
2.9605605e-05
4.0167874e-05
5.7093292e-05
8.2403583e-05
0.00012058478
0.00018217042
0.00029559882
0.00056027204
0.0014476059
2.4744478e-05
2.958724e-05
4.0172352e-05
5.712538e-05
8.2460581e-05
0.0001206575
0.00018224511
0.0002956578
0.00056028924
0.0014475181
2.4723868e-05
2.9578287e-05
4.0185443e-05
5.7164271e-05
8.2521729e-05
0.00012073155
0.00018231908
0.00029571606
0.00056031036
0.0014474579
2.4711559e-05
2.957727e-05
4.0205368e-05
5.7207973e-05
8.2585043e-05
0.00012080517
0.00018239094
0.00029577257
0.00056033429
0.0014474217
2.4706339e-05
2.9582814e-05
4.0230515e-05
5.7254743e-05
8.2648843e-05
0.00012087693
0.0001824596
0.00029582646
0.00056036004
0.0014474062
2.4707065e-05
2.9593651e-05
4.0259452e-05
5.7303082e-05
8.2711736e-05
0.00012094569
0.00018252422
0.0002958771
0.00056038669
0.001447408
2.4712679e-05
2.9608628e-05
4.0290917e-05
5.7351721e-05
8.2772591e-05
0.00012101057
0.00018258419
0.000295924
0.00056041349
0.001447424
2.4722205e-05
2.962671e-05
4.032382e-05
5.7399609e-05
8.2830523e-05
0.00012107093
0.00018263912
0.00029596686
0.00056043982
0.0014474513
2.473476e-05
2.964698e-05
4.0357233e-05
5.7445898e-05
8.2884866e-05
0.00012112636
0.00018268877
0.00029600553
0.00056046521
0.0014474872
2.4749556e-05
2.9668639e-05
4.0390383e-05
5.7489925e-05
8.2935149e-05
0.00012117659
0.00018273309
0.00029603997
0.00056048916
0.0014475291
2.4765896e-05
2.9690999e-05
4.0422638e-05
5.7531194e-05
8.2981071e-05
0.00012122154
0.00018277215
0.0002960702
0.00056051102
0.001447575
2.4783177e-05
2.9713481e-05
4.0453499e-05
5.7569352e-05
8.3022477e-05
0.00012126125
0.00018280606
0.00029609615
0.00056053073
0.001447623
2.4800881e-05
2.9735606e-05
4.0482585e-05
5.7604176e-05
8.3059332e-05
0.00012129584
0.00018283496
0.00029611796
0.00056054866
0.001447672
2.4818575e-05
2.9756988e-05
4.0509617e-05
5.7635552e-05
8.30917e-05
0.00012132544
0.00018285902
0.00029613611
0.00056056494
0.001447721
2.4835901e-05
2.9777322e-05
4.0534413e-05
5.7663461e-05
8.3119675e-05
0.00012135026
0.00018287871
0.00029615097
0.00056057963
0.0014477691
2.4852573e-05
2.9796385e-05
4.0556872e-05
5.7687914e-05
8.3143392e-05
0.00012137065
0.00018289444
0.00029616286
0.00056059273
0.0014478155
2.4868372e-05
2.9814018e-05
4.0576923e-05
5.7708982e-05
8.3163128e-05
0.00012138701
0.00018290662
0.0002961721
0.00056060425
0.0014478598
2.4883125e-05
2.9830097e-05
4.059456e-05
5.7726828e-05
8.3179194e-05
0.00012139973
0.00018291564
0.00029617895
0.00056061422
0.0014479014
2.4896703e-05
2.9844554e-05
4.060984e-05
5.7741656e-05
8.3191919e-05
0.00012140922
0.0001829219
0.00029618372
0.00056062267
0.0014479398
2.4909027e-05
2.9857371e-05
4.0622865e-05
5.7753702e-05
8.3201646e-05
0.00012141586
0.00018292577
0.00029618666
0.0005606297
0.0014479749
2.492006e-05
2.9868571e-05
4.0633766e-05
5.7763218e-05
8.3208718e-05
0.00012142005
0.0001829276
0.00029618807
0.00056063543
0.0014480064
2.49298e-05
2.9878211e-05
4.06427e-05
5.7770466e-05
8.3213473e-05
0.00012142213
0.00018292774
0.00029618819
0.00056064
0.0014480344
2.4938277e-05
2.9886368e-05
4.0649836e-05
5.7775708e-05
8.3216237e-05
0.00012142247
0.0001829265
0.00029618728
0.00056064354
0.0014480588
2.4945541e-05
2.9893142e-05
4.0655352e-05
5.77792e-05
8.3217315e-05
0.00012142136
0.00018292415
0.00029618556
0.00056064618
0.0014480799
2.4951659e-05
2.9898641e-05
4.0659428e-05
5.7781188e-05
8.3216993e-05
0.0001214191
0.00018292096
0.00029618319
0.00056064805
0.0014480979
2.4956711e-05
2.9902981e-05
4.0662239e-05
5.7781903e-05
8.3215532e-05
0.00012141595
0.00018291713
0.00029618036
0.00056064924
0.0014481129
2.4960785e-05
2.9906282e-05
4.0663955e-05
5.7781561e-05
8.3213166e-05
0.00012141212
0.00018291287
0.00029617719
0.00056064982
0.0014481253
2.4963973e-05
2.9908663e-05
4.066474e-05
5.7780359e-05
8.3210108e-05
0.00012140782
0.00018290832
0.0002961738
0.00056064989
0.0014481352
2.4966369e-05
2.9910241e-05
4.0664745e-05
5.7778478e-05
8.3206546e-05
0.00012140322
0.00018290364
0.0002961703
0.00056064953
0.0014481428
2.4968065e-05
2.9911129e-05
4.0664111e-05
5.777608e-05
8.3202644e-05
0.00012139847
0.00018289895
0.00029616678
0.00056064882
0.0014481485
2.4969154e-05
2.9911432e-05
4.0662967e-05
5.7773308e-05
8.3198546e-05
0.00012139369
0.00018289434
0.00029616332
0.00056064786
0.0014481524
2.4969722e-05
2.991125e-05
4.0661429e-05
5.7770287e-05
8.3194373e-05
0.000121389
0.0001828899
0.00029615999
0.0005606467
0.0014481548
2.4969852e-05
2.9910675e-05
4.06596e-05
5.7767126e-05
8.3190224e-05
0.00012138447
0.0001828857
0.00029615683
0.00056064542
0.0014481559
2.496962e-05
2.9909788e-05
4.065757e-05
5.7763914e-05
8.3186179e-05
0.00012138016
0.00018288176
0.00029615387
0.00056064405
0.0014481559
2.4969096e-05
2.9908666e-05
4.0655416e-05
5.7760725e-05
8.3182303e-05
0.00012137613
0.00018287813
0.00029615113
0.00056064262
0.0014481551
2.4968343e-05
2.9907371e-05
4.0653206e-05
5.7757622e-05
8.3178643e-05
0.0001213724
0.00018287481
0.00029614862
0.00056064115
0.0014481534
2.4967418e-05
2.9905964e-05
4.0650996e-05
5.7754653e-05
8.3175237e-05
0.000121369
0.00018287182
0.00029614634
0.00056063968
0.0014481512
2.4966375e-05
2.9904499e-05
4.064884e-05
5.7751866e-05
8.3172118e-05
0.00012136593
0.00018286915
0.00029614427
0.00056063819
0.0014481486
)
;

boundaryField
{
    water_inlet
    {
        type            turbulentMixingLengthDissipationRateInlet;
        mixingLength    0.005;
        phi             phi;
        k               k;
        value           uniform 0.00011791765;
    }
    water_outlet
    {
        type            inletOutlet;
        inletValue      uniform 0.0001;
        value           nonuniform List<scalar> 10(2.4966375e-05 2.9904499e-05 4.064884e-05 5.7751866e-05 8.3172118e-05 0.00012136593 0.00018286915 0.00029614427 0.00056063819 0.0014481486);
    }
    water_wedge1
    {
        type            wedge;
    }
    water_wedge2
    {
        type            wedge;
    }
    water_to_rock
    {
        type            epsilonWallFunction;
        blending        stepwise;
        value           nonuniform List<scalar> 
100
(
0.0013048048
0.0016574915
0.0016622
0.0015600258
0.0014605596
0.001394416
0.0013593134
0.0013440708
0.0013390504
0.0013385662
0.0013399581
0.0013422097
0.0013450163
0.0013483151
0.0013520945
0.0013563339
0.0013609721
0.0013659395
0.0013711897
0.0013766837
0.0013823793
0.0013882301
0.0013941876
0.0014002015
0.0014062195
0.0014121855
0.0014180382
0.0014237103
0.0014291287
0.0014342182
0.0014389065
0.0014431302
0.001446841
0.0014500094
0.0014526272
0.0014547061
0.0014562752
0.0014573774
0.0014580646
0.0014583936
0.0014584225
0.0014582076
0.0014578013
0.0014572511
0.0014565954
0.0014558673
0.0014550991
0.0014543181
0.0014535461
0.0014527994
0.00145209
0.0014514265
0.0014508144
0.0014502573
0.0014497569
0.0014493134
0.0014489258
0.001448592
0.0014483087
0.0014480725
0.0014478793
0.0014477251
0.0014476059
0.0014475181
0.0014474579
0.0014474217
0.0014474062
0.001447408
0.001447424
0.0014474513
0.0014474872
0.0014475291
0.001447575
0.001447623
0.001447672
0.001447721
0.0014477691
0.0014478155
0.0014478598
0.0014479014
0.0014479398
0.0014479749
0.0014480064
0.0014480344
0.0014480588
0.0014480799
0.0014480979
0.0014481129
0.0014481253
0.0014481352
0.0014481428
0.0014481485
0.0014481524
0.0014481548
0.0014481559
0.0014481559
0.0014481551
0.0014481534
0.0014481512
0.0014481486
)
;
    }
}


// ************************************************************************* //
