/*--------------------------------*- C++ -*----------------------------------*\
| =========                 |                                                 |
| \\      /  F ield         | OpenFOAM: The Open Source CFD Toolbox           |
|  \\    /   O peration     | Version:  2506                                  |
|   \\  /    A nd           | Website:  www.openfoam.com                      |
|    \\/     M anipulation  |                                                 |
\*---------------------------------------------------------------------------*/
FoamFile
{
    version     2.0;
    format      ascii;
    arch        "LSB;label=32;scalar=64";
    class       volScalarField;
    location    "10000/water";
    object      k;
}
// * * * * * * * * * * * * * * * * * * * * * * * * * * * * * * * * * * * * * //

dimensions      [0 2 -2 0 0 0 0];

internalField   nonuniform List<scalar> 
1000
(
0.00017657855
0.00017657518
0.00017657131
0.00017655365
0.00017648098
0.00017625478
0.00017589507
0.00017764177
0.00020514192
0.00048657967
0.00013915035
0.00013915817
0.00013914641
0.00013908743
0.00013888206
0.0001383736
0.00013797747
0.00014325064
0.00019616754
0.00057072179
0.00011343696
0.00011343683
0.00011340783
0.00011329561
0.00011298241
0.0001124902
0.0001134255
0.00012641408
0.00020548431
0.00057180213
9.4956345e-05
9.4947216e-05
9.4898274e-05
9.474799e-05
9.4461176e-05
9.4591081e-05
9.8882429e-05
0.00012463507
0.00023169851
0.0005481231
8.1180941e-05
8.1164581e-05
8.1102165e-05
8.096705e-05
8.096005e-05
8.2611617e-05
9.2929854e-05
0.00013695746
0.00027128491
0.00052456959
7.0599818e-05
7.0579371e-05
7.0523471e-05
7.0504804e-05
7.1168243e-05
7.5593893e-05
9.5291548e-05
0.00016203288
0.00031585982
0.00050861034
6.2267978e-05
6.2250532e-05
6.2239518e-05
6.2499626e-05
6.4399435e-05
7.3303832e-05
0.00010610156
0.00019613526
0.00035649795
0.00050003836
5.5571434e-05
5.5570244e-05
5.566765e-05
5.6450661e-05
6.038891e-05
7.597115e-05
0.0001249872
0.00023351962
0.00038871376
0.00049629322
5.0098705e-05
5.0135844e-05
5.0440288e-05
5.2102995e-05
5.919047e-05
8.3984047e-05
0.00015029903
0.00026896196
0.00041246965
0.00049505664
4.5567682e-05
4.567787e-05
4.6337521e-05
4.939166e-05
6.1095916e-05
9.7486545e-05
0.00017920248
0.00029964264
0.00042964074
0.00049493729
4.178281e-05
4.2019044e-05
4.3252184e-05
4.8416234e-05
6.6518081e-05
0.00011597909
0.00020865676
0.00032501732
0.00044223032
0.00049528033
3.8609686e-05
3.9051452e-05
4.1174585e-05
4.942277e-05
7.5808324e-05
0.00013818995
0.00023642009
0.00034572006
0.00045177476
0.000495835
3.5960365e-05
3.6725392e-05
4.0189439e-05
5.2767013e-05
8.9027788e-05
0.00016237177
0.00026138216
0.00036268778
0.00045931506
0.00049652596
3.3785891e-05
3.5046502e-05
4.0478205e-05
5.8837699e-05
0.00010576986
0.00018682803
0.00028330021
0.0003767733
0.00046551935
0.00049733747
3.2074353e-05
3.4079182e-05
4.2315953e-05
6.7933551e-05
0.0001251606
0.00021031398
0.00030238132
0.00038864923
0.0004708078
0.00049826644
3.0853765e-05
3.395449e-05
4.6048084e-05
8.0117984e-05
0.00014606365
0.00023213617
0.00031898713
0.00039881734
0.00047543906
0.0004993074
3.0199535e-05
3.4878921e-05
5.203425e-05
9.5115616e-05
0.00016736961
0.00025203074
0.0003334887
0.00040763788
0.00047952204
0.00050044506
3.0245966e-05
3.7136056e-05
6.0556196e-05
0.0001123192
0.00018821084
0.00026998836
0.00034621452
0.00041534854
0.00048317106
0.00050166203
3.1199952e-05
4.1068979e-05
7.1707614e-05
0.00013091728
0.00020802787
0.00028611979
0.00035742606
0.00042213411
0.00048649171
0.0005029467
3.3351645e-05
4.7031276e-05
8.5310864e-05
0.00015007634
0.00022652153
0.00030057582
0.00036733073
0.00042814971
0.00048955798
0.00050428923
3.7070468e-05
5.5301817e-05
0.00010090959
0.00016908795
0.00024356793
0.00031350297
0.00037608855
0.00043353286
0.00049241558
0.00050567916
4.2767452e-05
6.5979232e-05
0.0001178502
0.00018743137
0.00025913407
0.00032501592
0.00038386939
0.00043837708
0.00049509073
0.00050710499
5.0805327e-05
7.8899036e-05
0.00013541217
0.00020475548
0.00027320755
0.00033526186
0.00039079706
0.00044274763
0.00049759758
0.00050855476
6.1362054e-05
9.362243e-05
0.00015292615
0.00022080489
0.0002858331
0.00034436378
0.0003969611
0.00044668825
0.00049994152
0.00051001618
7.4303049e-05
0.00010951503
0.00016980497
0.00023542206
0.00029707761
0.00035241136
0.00040242271
0.0004502253
0.00050212079
0.00051147648
8.9142771e-05
0.00012582828
0.00018559511
0.00024853523
0.0003069915
0.00035946512
0.00040721942
0.00045337056
0.00050412731
0.00051292212
0.0001050851
0.0001418486
0.00019999873
0.00026010241
0.00031560918
0.00036556164
0.00041136959
0.00045612387
0.00050594757
0.00051433833
0.00012123822
0.00015699643
0.00021282853
0.00027010607
0.00032295487
0.00037072066
0.0004148778
0.00045847639
0.00050756411
0.00051570893
0.00013679948
0.00017085441
0.00022398881
0.00027855492
0.0003290518
0.00037495407
0.00041774149
0.00046041491
0.00050895771
0.00051701654
0.00015116498
0.00018316326
0.00023346014
0.00028548732
0.00033393224
0.00037827561
0.00041995853
0.00046192703
0.00051011049
0.00051824329
0.00016395763
0.00019379998
0.00024128506
0.00029097263
0.00033764537
0.00038070958
0.00042153453
0.00046300657
0.00051100926
0.00051937208
0.00017500082
0.00020274923
0.00024755381
0.00029510887
0.0003402614
0.00038229692
0.00042248861
0.0004636581
0.00051164855
0.00052038798
0.0001842694
0.00021007417
0.00025239031
0.00029801731
0.00034187152
0.00038309763
0.00042285652
0.00046389981
0.00051203266
0.0005212797
0.00019183974
0.0002158903
0.00025593951
0.00029983511
0.00034258429
0.00038318966
0.00042269074
0.00046376395
0.00051217617
0.0005220405
0.00019784864
0.00022034392
0.00025835672
0.00030070759
0.00034251996
0.00038266507
0.00042205791
0.00046329512
0.00051210291
0.00052266862
0.00020246344
0.00022359583
0.00025979904
0.00030078126
0.0003418041
0.00038162455
0.00042103447
0.00046254697
0.00051184373
0.00052316714
0.00020586182
0.0002258095
0.00026041912
0.00030019805
0.00034056161
0.00038017168
0.00041970155
0.00046157804
0.00051143366
0.00052354325
0.00020821911
0.00022714325
0.00026036072
0.00029909115
0.00033891172
0.0003784077
0.0004181401
0.00046044769
0.00051090904
0.00052380735
0.00020970077
0.00022774522
0.00025975594
0.00029758218
0.00033696437
0.00037642734
0.00041642678
0.00045921258
0.00051030503
0.00052397197
0.00021045839
0.00022775065
0.00025872372
0.00029577967
0.00033481791
0.00037431591
0.00041463094
0.00045792406
0.00050965379
0.00052405077
0.00021062792
0.00022728057
0.00025736918
0.00029377836
0.0003325579
0.00037214759
0.00041281278
0.00045662653
0.00050898325
0.00052405768
0.00021032929
0.00022644153
0.00025578377
0.00029165939
0.00033025674
0.00036998466
0.00041102238
0.00045535656
0.0005083165
0.0005240062
0.00020966686
0.00022532603
0.00025404577
0.00028949079
0.0003279741
0.00036787764
0.00040929965
0.00045414282
0.0005076717
0.0005239089
0.00020873041
0.00022401328
0.00025222119
0.00028732844
0.00032575767
0.00036586584
0.00040767479
0.0004530064
0.00050706218
0.00052377714
0.0002075963
0.00022257032
0.00025036474
0.00028521718
0.00032364427
0.00036397832
0.00040616892
0.00045196045
0.00050648835
0.00052362006
0.00020632885
0.00022105315
0.00024852106
0.00028319204
0.00032166112
0.00036223521
0.00040479514
0.00045100887
0.00050595639
0.00052344557
0.00020498163
0.00021950792
0.00024672577
0.00028127943
0.00031982715
0.00036064874
0.00040355795
0.00045015471
0.00050547514
0.00052326139
0.00020359873
0.00021797211
0.00024500666
0.00027949834
0.00031815401
0.00035922333
0.00040245797
0.00044940213
0.0005050488
0.00052307409
0.00020221595
0.00021647553
0.00024338463
0.00027786122
0.0003166465
0.00035795809
0.00040149593
0.00044875116
0.00050467831
0.00052288887
0.00020086181
0.00021504138
0.00024187457
0.0002763744
0.00031530366
0.00035685166
0.00040066876
0.00044819855
0.00050436232
0.00052270973
0.00019955852
0.00021368698
0.00024048552
0.00027503894
0.00031412364
0.00035589913
0.00039997024
0.00044773875
0.00050409792
0.00052253958
0.00019832261
0.00021242403
0.00023922206
0.00027385419
0.00031310137
0.00035509278
0.00039939197
0.00044736468
0.00050388117
0.00052238044
0.00019716558
0.00021126015
0.00023808611
0.00027281663
0.00031222931
0.00035442295
0.00039892423
0.00044706843
0.00050370766
0.00052223365
0.00019609535
0.00021019985
0.00023707691
0.00027192051
0.00031149816
0.00035387881
0.00039855662
0.00044684182
0.00050357286
0.00052210001
0.00019511687
0.00020924502
0.00023619155
0.00027115841
0.00031089751
0.00035344888
0.00039827852
0.00044667673
0.00050347233
0.00052197992
0.00019423256
0.00020839535
0.00023542538
0.0002705217
0.00031041623
0.00035312147
0.00039807949
0.00044656535
0.00050340185
0.00052187344
0.00019344279
0.00020764873
0.0002347724
0.00027000089
0.00031004285
0.00035288491
0.00039794936
0.00044650023
0.00050335741
0.00052178033
0.00019274619
0.00020700154
0.00023422553
0.00026958591
0.00030976574
0.00035272779
0.00039787837
0.00044647431
0.00050333519
0.0005217001
0.00019213989
0.00020644896
0.00023377692
0.00026926636
0.00030957336
0.00035263903
0.00039785725
0.00044648095
0.00050333158
0.00052163205
0.00019161986
0.00020598519
0.00023341811
0.00026903171
0.00030945445
0.00035260806
0.00039787729
0.00044651397
0.00050334315
0.00052157533
0.0001911811
0.00020560371
0.00023314036
0.00026887153
0.00030939818
0.00035262499
0.00039793047
0.00044656774
0.00050336677
0.00052152897
0.00019081787
0.0002052975
0.0002329348
0.00026877573
0.00030939437
0.00035268069
0.00039800956
0.00044663725
0.00050339965
0.00052149201
0.000190524
0.00020505932
0.0002327927
0.0002687347
0.00030943361
0.00035276696
0.00039810814
0.00044671813
0.00050343936
0.00052146346
0.00019029303
0.00020488184
0.00023270563
0.00026873948
0.00030950736
0.0003528765
0.00039822067
0.00044680666
0.00050348386
0.0005214424
0.00019011846
0.00020475788
0.00023266559
0.00026878184
0.00030960798
0.00035300294
0.00039834239
0.00044689972
0.00050353144
0.00052142793
0.00018999386
0.00020468051
0.00023266511
0.0002688543
0.00030972869
0.00035314076
0.00039846926
0.00044699471
0.00050358069
0.00052141922
0.00018991299
0.00020464313
0.00023269726
0.00026895012
0.00030986357
0.00035328524
0.00039859791
0.00044708945
0.0005036304
0.00052141544
0.00018986983
0.00020463951
0.0002327557
0.00026906329
0.00031000742
0.00035343233
0.00039872546
0.00044718216
0.00050367956
0.00052141584
0.00018985872
0.00020466385
0.00023283465
0.00026918848
0.00031015577
0.0003535786
0.00039884957
0.00044727133
0.00050372728
0.00052141965
0.00018987428
0.00020471077
0.00023292891
0.00026932103
0.0003103048
0.00035372123
0.00039896831
0.00044735577
0.00050377284
0.00052142619
0.00018991154
0.00020477534
0.00023303385
0.0002694569
0.0003104513
0.0003538579
0.00039908017
0.00044743456
0.00050381566
0.00052143482
0.0001899659
0.00020485312
0.00023314539
0.00026959267
0.00031059267
0.00035398681
0.00039918401
0.00044750698
0.00050385492
0.00052144492
0.0001900332
0.00020494014
0.00023326004
0.00026972553
0.00031072686
0.00035410665
0.00039927905
0.00044757243
0.00050389015
0.00052145596
0.00019010975
0.00020503294
0.00023337484
0.00026985321
0.00031085237
0.00035421652
0.00039936477
0.00044763059
0.00050392146
0.00052146752
0.00019019229
0.00020512858
0.0002334874
0.00026997402
0.00031096815
0.00035431588
0.00039944089
0.00044768157
0.00050394911
0.0005214793
0.00019027808
0.00020522456
0.0002335958
0.00027008668
0.00031107352
0.00035440444
0.00039950753
0.00044772577
0.00050397331
0.00052149106
0.00019036478
0.00020531888
0.00023369858
0.00027019037
0.00031116811
0.00035448224
0.00039956515
0.00044776362
0.00050399427
0.00052150259
0.00019045048
0.00020540994
0.00023379465
0.00027028448
0.00031125184
0.00035454973
0.0003996143
0.00044779558
0.00050401223
0.00052151372
0.00019053365
0.00020549648
0.00023388321
0.00027036876
0.00031132499
0.00035460743
0.00039965555
0.00044782212
0.0005040274
0.00052152432
0.00019061305
0.0002055775
0.00023396376
0.00027044326
0.000311388
0.00035465596
0.00039968952
0.00044784371
0.00050404001
0.00052153428
0.00019068771
0.00020565233
0.00023403606
0.0002705082
0.00031144141
0.000354696
0.00039971685
0.0004478608
0.00050405026
0.0005215435
0.00019075692
0.0002057205
0.0002341001
0.00027056397
0.00031148584
0.00035472825
0.00039973816
0.00044787385
0.00050405836
0.00052155193
0.00019082021
0.00020578179
0.00023415602
0.00027061103
0.00031152198
0.00035475342
0.00039975407
0.00044788328
0.00050406449
0.00052155951
0.00019087731
0.00020583614
0.00023420411
0.00027064998
0.00031155055
0.00035477225
0.00039976521
0.00044788954
0.00050406886
0.00052156623
0.00019092811
0.00020588365
0.00023424476
0.00027068145
0.00031157232
0.00035478548
0.00039977219
0.00044789305
0.0005040717
0.00052157212
0.00019097269
0.00020592455
0.00023427846
0.00027070614
0.00031158807
0.00035479387
0.00039977564
0.00044789425
0.00050407321
0.00052157719
0.00019101123
0.00020595919
0.00023430578
0.00027072478
0.00031159858
0.00035479813
0.00039977614
0.00044789355
0.00050407363
0.0005215815
0.00019104403
0.00020598799
0.00023432732
0.00027073809
0.00031160461
0.00035479895
0.00039977424
0.00044789132
0.00050407316
0.0005215851
0.00019107146
0.00020601141
0.00023434369
0.00027074678
0.00031160686
0.00035479696
0.00039977043
0.00044788792
0.00050407198
0.00052158806
0.00019109392
0.00020602995
0.0002343555
0.00027075153
0.00031160598
0.00035479271
0.00039976515
0.00044788363
0.00050407027
0.00052159044
0.00019111187
0.00020604414
0.00023436334
0.00027075295
0.00031160256
0.00035478671
0.00039975878
0.0004478787
0.00050406815
0.00052159228
0.00019112575
0.00020605445
0.00023436777
0.00027075162
0.00031159713
0.00035477939
0.00039975162
0.00044787333
0.00050406572
0.00052159365
0.00019113601
0.00020606139
0.00023436931
0.00027074806
0.00031159016
0.00035477113
0.00039974397
0.00044786771
0.00050406309
0.00052159459
0.00019114309
0.00020606541
0.00023436845
0.00027074273
0.00031158207
0.00035476227
0.00039973608
0.000447862
0.00050406034
0.00052159517
0.00019114742
0.00020606696
0.00023436565
0.00027073609
0.00031157323
0.00035475311
0.00039972814
0.00044785634
0.00050405755
0.00052159544
0.00019114941
0.00020606645
0.0002343613
0.00027072849
0.00031156397
0.0003547439
0.00039972035
0.00044785084
0.0005040548
0.00052159545
0.00019114942
0.00020606426
0.00023435579
0.00027072027
0.00031155455
0.00035473484
0.00039971284
0.0004478456
0.00050405214
0.00052159524
0.0001911478
0.00020606073
0.00023434942
0.00027071171
0.00031154519
0.00035472609
0.00039970572
0.00044784067
0.00050404962
0.00052159487
0.00019114488
0.00020605616
0.00023434247
0.00027070304
0.00031153607
0.00035471775
0.00039969904
0.00044783609
0.00050404724
0.00052159436
0.00019114094
0.00020605084
0.00023433521
0.00027069447
0.00031152733
0.00035470992
0.00039969283
0.00044783183
0.00050404498
0.00052159374
)
;

boundaryField
{
    water_inlet
    {
        type            turbulentIntensityKineticEnergyInlet;
        intensity       0.05;
        value           uniform 0.000234375;
    }
    water_outlet
    {
        type            inletOutlet;
        inletValue      uniform 0.0001;
        value           nonuniform List<scalar> 10(0.00019114094 0.00020605084 0.00023433521 0.00027069447 0.00031152733 0.00035470992 0.00039969283 0.00044783183 0.00050404498 0.00052159374);
    }
    water_wedge1
    {
        type            wedge;
    }
    water_wedge2
    {
        type            wedge;
    }
    water_to_rock
    {
        type            kqRWallFunction;
        value           nonuniform List<scalar> 
100
(
0.00048657967
0.00057072179
0.00057180213
0.0005481231
0.00052456959
0.00050861034
0.00050003836
0.00049629322
0.00049505664
0.00049493729
0.00049528033
0.000495835
0.00049652596
0.00049733747
0.00049826644
0.0004993074
0.00050044506
0.00050166203
0.0005029467
0.00050428923
0.00050567916
0.00050710499
0.00050855476
0.00051001618
0.00051147648
0.00051292212
0.00051433833
0.00051570893
0.00051701654
0.00051824329
0.00051937208
0.00052038798
0.0005212797
0.0005220405
0.00052266862
0.00052316714
0.00052354325
0.00052380735
0.00052397197
0.00052405077
0.00052405768
0.0005240062
0.0005239089
0.00052377714
0.00052362006
0.00052344557
0.00052326139
0.00052307409
0.00052288887
0.00052270973
0.00052253958
0.00052238044
0.00052223365
0.00052210001
0.00052197992
0.00052187344
0.00052178033
0.0005217001
0.00052163205
0.00052157533
0.00052152897
0.00052149201
0.00052146346
0.0005214424
0.00052142793
0.00052141922
0.00052141544
0.00052141584
0.00052141965
0.00052142619
0.00052143482
0.00052144492
0.00052145596
0.00052146752
0.0005214793
0.00052149106
0.00052150259
0.00052151372
0.00052152432
0.00052153428
0.0005215435
0.00052155193
0.00052155951
0.00052156623
0.00052157212
0.00052157719
0.0005215815
0.0005215851
0.00052158806
0.00052159044
0.00052159228
0.00052159365
0.00052159459
0.00052159517
0.00052159544
0.00052159545
0.00052159524
0.00052159487
0.00052159436
0.00052159374
)
;
    }
}


// ************************************************************************* //
