/*--------------------------------*- C++ -*----------------------------------*\
| =========                 |                                                 |
| \\      /  F ield         | OpenFOAM: The Open Source CFD Toolbox           |
|  \\    /   O peration     | Version:  2506                                  |
|   \\  /    A nd           | Website:  www.openfoam.com                      |
|    \\/     M anipulation  |                                                 |
\*---------------------------------------------------------------------------*/
FoamFile
{
    version     2.0;
    format      ascii;
    arch        "LSB;label=32;scalar=64";
    class       volScalarField;
    location    "10000/water";
    object      nut;
}
// * * * * * * * * * * * * * * * * * * * * * * * * * * * * * * * * * * * * * //

dimensions      [0 2 -1 0 0 0 0];

internalField   nonuniform List<scalar> 
1000
(
3.8760013e-05
3.8759344e-05
3.875781e-05
3.8749425e-05
3.8703919e-05
3.8465194e-05
3.7257946e-05
3.1920746e-05
1.9133704e-05
1.6330702e-05
3.6503362e-05
3.6502673e-05
3.6496233e-05
3.646333e-05
3.6309099e-05
3.5625575e-05
3.2857818e-05
2.45205e-05
1.4670666e-05
1.7686427e-05
3.4818769e-05
3.4815355e-05
3.4798028e-05
3.4720761e-05
3.4400236e-05
3.3155723e-05
2.8966461e-05
2.011472e-05
1.4313143e-05
1.7703159e-05
3.3515366e-05
3.3507685e-05
3.3473492e-05
3.3336596e-05
3.2819808e-05
3.0995907e-05
2.5816409e-05
1.8305021e-05
1.5980822e-05
1.7332729e-05
3.247679e-05
3.2463573e-05
3.2409014e-05
3.2208501e-05
3.1494124e-05
2.9122824e-05
2.35987e-05
1.8669593e-05
1.889566e-05
1.6956236e-05
3.1628598e-05
3.1609534e-05
3.153636e-05
3.1282466e-05
3.0382795e-05
2.7534816e-05
2.25958e-05
2.0841272e-05
2.2319094e-05
1.6696311e-05
3.0922115e-05
3.0899106e-05
3.0816961e-05
3.0532884e-05
2.9455046e-05
2.6339535e-05
2.3103401e-05
2.4287619e-05
2.5587429e-05
1.6555014e-05
3.0325436e-05
3.0303991e-05
3.0232564e-05
2.9948354e-05
2.8695863e-05
2.5833798e-05
2.5183726e-05
2.8331504e-05
2.8356032e-05
1.6492901e-05
2.9818406e-05
2.9809193e-05
2.977926e-05
2.9521739e-05
2.8157701e-05
2.6404597e-05
2.8559751e-05
3.2392852e-05
3.0574264e-05
1.6472342e-05
2.9389965e-05
2.9410469e-05
2.9462803e-05
2.9249381e-05
2.8031472e-05
2.828825e-05
3.2740207e-05
3.614578e-05
3.2325804e-05
1.6470357e-05
2.903702e-05
2.9113048e-05
2.9294093e-05
2.9152115e-05
2.8635094e-05
3.1431656e-05
3.7231792e-05
3.9484799e-05
3.3719929e-05
1.6476063e-05
2.8764325e-05
2.893079e-05
2.9285918e-05
2.9323265e-05
3.026987e-05
3.5542607e-05
4.1683831e-05
4.2418029e-05
3.4850542e-05
1.6485286e-05
2.8585097e-05
2.8885098e-05
2.9456486e-05
2.9967035e-05
3.3062359e-05
4.0233895e-05
4.5910783e-05
4.4991584e-05
3.5787832e-05
1.6496768e-05
2.8522078e-05
2.9003194e-05
2.9849466e-05
3.136036e-05
3.6918662e-05
4.5156762e-05
4.984127e-05
4.7257352e-05
3.6581215e-05
1.6510244e-05
2.8608628e-05
2.9316853e-05
3.0571177e-05
3.3736634e-05
4.1586873e-05
5.0067169e-05
5.3461933e-05
4.9262645e-05
3.726485e-05
1.6525656e-05
2.888929e-05
2.9866137e-05
3.181481e-05
3.7181012e-05
4.6760455e-05
5.4824692e-05
5.6783937e-05
5.104735e-05
3.7861855e-05
1.654291e-05
2.9419601e-05
3.071591e-05
3.3825414e-05
4.1605997e-05
5.2164893e-05
5.9359683e-05
5.9827252e-05
5.2642559e-05
3.8382022e-05
1.6561745e-05
3.0266778e-05
3.1985696e-05
3.6807998e-05
4.6798751e-05
5.759889e-05
6.3641774e-05
6.2613399e-05
5.4068864e-05
3.8841661e-05
1.658187e-05
3.1517121e-05
3.3868995e-05
4.0842546e-05
5.2497641e-05
6.2933641e-05
6.766054e-05
6.5161107e-05
5.5349566e-05
3.925144e-05
1.6603088e-05
3.3297094e-05
3.6603414e-05
4.5857845e-05
5.8458819e-05
6.8092339e-05
7.1415476e-05
6.7488977e-05
5.6504127e-05
3.9619153e-05
1.6625233e-05
3.5799491e-05
4.0389162e-05
5.1663937e-05
6.449081e-05
7.3028916e-05
7.4907399e-05
6.9617501e-05
5.7547369e-05
3.9950778e-05
1.6648128e-05
3.9276746e-05
4.5306559e-05
5.8013832e-05
7.045716e-05
7.7711261e-05
7.8146253e-05
7.1563574e-05
5.8491196e-05
4.0250648e-05
1.6671582e-05
4.3967452e-05
5.1282559e-05
6.4661765e-05
7.6260736e-05
8.2121151e-05
8.1142966e-05
7.3340817e-05
5.9344902e-05
4.0521867e-05
1.6695396e-05
4.998241e-05
5.8114047e-05
7.1396154e-05
8.1829963e-05
8.6249642e-05
8.390595e-05
7.495979e-05
6.011541e-05
4.0766554e-05
1.6719368e-05
5.7223503e-05
6.5522387e-05
7.8046231e-05
8.7114254e-05
9.0089917e-05
8.6440647e-05
7.642786e-05
6.0807462e-05
4.098598e-05
1.6743288e-05
6.5385995e-05
7.3208667e-05
8.4484954e-05
9.2075871e-05
9.3633527e-05
8.874907e-05
7.7749258e-05
6.1423798e-05
4.1180671e-05
1.6766933e-05
7.4040169e-05
8.0900113e-05
9.0617442e-05
9.6681523e-05
9.6870158e-05
9.0829992e-05
7.8925385e-05
6.1965416e-05
4.1350516e-05
1.6790064e-05
8.27418e-05
8.8366565e-05
9.6367258e-05
0.00010090228
9.9788656e-05
9.2679871e-05
7.9955502e-05
6.2431989e-05
4.1494942e-05
1.6812419e-05
9.1117769e-05
9.5425999e-05
0.00010167341
0.00010471483
0.00010237897
9.4294432e-05
8.0837779e-05
6.2822466e-05
4.1613152e-05
1.6833718e-05
9.8903987e-05
0.00010194526
0.00010649038
0.0001081032
0.00010463449
9.5670604e-05
8.1570625e-05
6.3135812e-05
4.1704416e-05
1.6853677e-05
0.00010594405
0.00010783795
0.00011078903
0.00011106044
0.00010655403
9.680839e-05
8.2154049e-05
6.3371811e-05
4.1768391e-05
1.6872022e-05
0.00011216799
0.00011305955
0.00011455698
0.00011358931
0.00010814322
9.7712276e-05
8.2590795e-05
6.3531754e-05
4.1805395e-05
1.6888517e-05
0.00011756682
0.00011760042
0.00011779779
0.00011570224
0.00010941476
9.83919e-05
8.288702e-05
6.3618907e-05
4.1816599e-05
1.6902982e-05
0.00012217064
0.00012147764
0.00012052896
0.00011742021
0.00011038795
9.8861949e-05
8.305241e-05
6.3638637e-05
4.1804077e-05
1.6915314e-05
0.00012603255
0.00012472726
0.00012277921
0.00011877118
0.00011108742
9.914139e-05
8.3099765e-05
6.3598203e-05
4.1770705e-05
1.6925488e-05
0.00012921767
0.0001273975
0.00012458535
0.00011978808
0.00011154159
9.925229e-05
8.3044211e-05
6.350629e-05
4.1719947e-05
1.6933557e-05
0.00013179607
0.00012954329
0.00012598932
0.00012050686
0.000111781
9.9218483e-05
8.2902229e-05
6.3372401e-05
4.1655576e-05
1.6939641e-05
0.00013383826
0.00013122227
0.00012703557
0.00012096471
0.00011183686
9.9064307e-05
8.26907e-05
6.3206249e-05
4.1581403e-05
1.6943911e-05
0.00013541244
0.00013249189
0.00012776897
0.00012119856
0.00011173977
9.881355e-05
8.2426078e-05
6.3017228e-05
4.1501051e-05
1.6946572e-05
0.00013658284
0.00013340744
0.00012823325
0.000121244
0.00011151884
9.8488643e-05
8.2123756e-05
6.2814011e-05
4.1417785e-05
1.6947845e-05
0.0001374088
0.00013402085
0.00012846985
0.00012113445
0.00011120101
9.8110091e-05
8.1797618e-05
6.260427e-05
4.1334412e-05
1.6947956e-05
0.00013794432
0.00013437991
0.00012851723
0.00012090063
0.00011081063
9.7696125e-05
8.1459764e-05
6.2394519e-05
4.1253226e-05
1.6947124e-05
0.00013823796
0.000134528
0.00012841044
0.00012057028
0.0001103693
9.7262532e-05
8.1120398e-05
6.2190056e-05
4.1175997e-05
1.6945553e-05
0.00013833297
0.00013450393
0.00012818097
0.000120168
0.00010989575
9.6822636e-05
8.0787825e-05
6.1994984e-05
4.1103991e-05
1.6943424e-05
0.0001382675
0.00013434213
0.00012785673
0.00011971532
0.00010940594
9.638736e-05
8.0468469e-05
6.1812039e-05
4.1036943e-05
1.6940886e-05
0.00013807499
0.00013407282
0.00012746218
0.00011923083
0.00010891317
9.596536e-05
8.0166914e-05
6.1642259e-05
4.0975978e-05
1.6938064e-05
0.00013778457
0.00013372238
0.00012701855
0.00011873028
0.0001084283
9.556312e-05
7.988572e-05
6.1487744e-05
4.0921572e-05
1.6935083e-05
0.00013742141
0.00013331355
0.00012654403
0.00011822683
0.00010795981
9.5184879e-05
7.9628085e-05
6.1349349e-05
4.087392e-05
1.6932048e-05
0.00013700706
0.00013286579
0.00012605391
0.00011773103
0.00010751372
9.4835029e-05
7.9395549e-05
6.1227357e-05
4.0832978e-05
1.6929047e-05
0.00013655972
0.00013239537
0.00012556057
0.00011725091
0.00010709583
9.4516042e-05
7.9188695e-05
6.1121562e-05
4.0798497e-05
1.6926144e-05
0.00013609437
0.00013191549
0.00012507413
0.00011679384
0.00010670981
9.4229111e-05
7.900733e-05
6.1031346e-05
4.0770069e-05
1.6923389e-05
0.00013562328
0.0001314373
0.00012460327
0.00011636499
0.00010635789
9.3974413e-05
7.8850642e-05
6.0955775e-05
4.0747177e-05
1.6920815e-05
0.00013515674
0.00013097
0.00012415464
0.00011596796
0.00010604108
9.3751345e-05
7.8717379e-05
6.0893724e-05
4.0729251e-05
1.6918442e-05
0.00013470307
0.00013052084
0.00012373314
0.00011560498
0.00010575947
9.3558746e-05
7.860601e-05
6.0843976e-05
4.0715717e-05
1.691628e-05
0.00013426883
0.00013009541
0.00012334232
0.00011527728
0.00010551248
9.3395073e-05
7.851486e-05
6.0805301e-05
4.0706034e-05
1.6914335e-05
0.00013385911
0.00012969792
0.00012298455
0.00011498522
0.000105299
9.3258527e-05
7.8442185e-05
6.0776505e-05
4.0699701e-05
1.6912608e-05
0.00013347772
0.00012933137
0.00012266121
0.00011472846
0.00010511748
9.3147118e-05
7.8386204e-05
6.0756425e-05
4.069626e-05
1.6911096e-05
0.00013312732
0.00012899769
0.0001223728
0.00011450603
0.00010496601
9.3058696e-05
7.8345114e-05
6.0743934e-05
4.0695275e-05
1.6909792e-05
0.00013280954
0.00012869784
0.00012211904
0.00011431643
0.00010484239
9.299099e-05
7.83171e-05
6.0737931e-05
4.0696333e-05
1.6908688e-05
0.00013252504
0.00012843194
0.00012189897
0.00011415769
0.00010474417
9.2941652e-05
7.8300359e-05
6.0737349e-05
4.0699033e-05
1.6907768e-05
0.00013227368
0.00012819932
0.00012171103
0.00011402751
0.00010466874
9.2908332e-05
7.8293146e-05
6.074118e-05
4.0703003e-05
1.6907019e-05
0.0001320546
0.00012799874
0.00012155325
0.00011392336
0.00010461349
9.2888752e-05
7.8293824e-05
6.07485e-05
4.0707904e-05
1.6906423e-05
0.00013186641
0.00012782847
0.0001214234
0.00011384263
0.00010457584
9.2880774e-05
7.8300903e-05
6.075849e-05
4.0713448e-05
1.6905963e-05
0.00013170734
0.0001276865
0.00012131906
0.00011378273
0.00010455338
9.2882447e-05
7.8313063e-05
6.077045e-05
4.0719396e-05
1.6905623e-05
0.00013157539
0.00012757064
0.00012123781
0.00011374117
0.00010454385
9.2892014e-05
7.8329154e-05
6.0783788e-05
4.0725559e-05
1.6905389e-05
0.00013146844
0.00012747864
0.00012117722
0.00011371557
0.00010454518
9.2907914e-05
7.8348179e-05
6.0798013e-05
4.0731785e-05
1.6905246e-05
0.00013138429
0.0001274082
0.00012113495
0.00011370368
0.00010455547
9.292875e-05
7.8369272e-05
6.0812708e-05
4.0737956e-05
1.6905183e-05
0.00013132073
0.00012735704
0.00012110869
0.00011370339
0.000104573
9.2953269e-05
7.8391675e-05
6.0827517e-05
4.074397e-05
1.6905187e-05
0.00013127553
0.0001273229
0.00012109622
0.00011371271
0.00010459615
9.2980347e-05
7.841472e-05
6.0842134e-05
4.0749743e-05
1.6905247e-05
0.00013124646
0.00012730353
0.00012109539
0.00011372976
0.00010462346
9.3008976e-05
7.8437821e-05
6.0856295e-05
4.07552e-05
1.6905352e-05
0.00013123133
0.00012729676
0.00012110418
0.0001137528
0.00010465361
9.3038273e-05
7.8460478e-05
6.0869781e-05
4.0760282e-05
1.6905493e-05
0.00013122797
0.00012730048
0.00012112065
0.00011378026
0.00010468544
9.3067478e-05
7.8482273e-05
6.0882404e-05
4.0764892e-05
1.6905658e-05
0.00013123432
0.00012731271
0.00012114306
0.00011381073
0.00010471794
9.3095969e-05
7.8502873e-05
6.0893996e-05
4.0769003e-05
1.6905838e-05
0.00013124848
0.00012733162
0.00012116983
0.00011384301
0.00010475028
9.3123247e-05
7.8522011e-05
6.0904484e-05
4.0772636e-05
1.6906027e-05
0.00013126871
0.0001273556
0.0001211996
0.00011387607
0.00010478181
9.3148927e-05
7.8539533e-05
6.091387e-05
4.0775806e-05
1.6906219e-05
0.00013129349
0.00012738322
0.00012123121
0.00011390909
0.00010481199
9.317275e-05
7.8555402e-05
6.0922165e-05
4.0778537e-05
1.6906409e-05
0.00013132148
0.00012741327
0.00012126368
0.00011394139
0.00010484044
9.3194607e-05
7.8569606e-05
6.0929409e-05
4.0780862e-05
1.6906595e-05
0.00013135158
0.00012744472
0.0001212962
0.00011397245
0.00010486695
9.3214431e-05
7.8582175e-05
6.093566e-05
4.0782815e-05
1.6906774e-05
0.00013138281
0.00012747668
0.00012132813
0.00011400191
0.00010489135
9.3232207e-05
7.8593165e-05
6.0940983e-05
4.0784432e-05
1.6906945e-05
0.00013141437
0.00012750847
0.00012135896
0.00011402948
0.00010491354
9.3247956e-05
7.8602651e-05
6.0945448e-05
4.0785748e-05
1.6907105e-05
0.00013144561
0.00012753949
0.00012138829
0.00011405495
0.00010493348
9.3261723e-05
7.861071e-05
6.094912e-05
4.0786792e-05
1.6907254e-05
0.00013147597
0.00012756928
0.00012141579
0.00011407818
0.00010495115
9.3273575e-05
7.8617429e-05
6.0952064e-05
4.078759e-05
1.690739e-05
0.00013150497
0.00012759744
0.00012144122
0.00011409908
0.00010496658
9.3283597e-05
7.8622899e-05
6.0954342e-05
4.0788165e-05
1.6907514e-05
0.00013153227
0.00012762366
0.00012146439
0.0001141176
0.00010497984
9.3291897e-05
7.862722e-05
6.0956019e-05
4.0788541e-05
1.6907624e-05
0.00013155756
0.00012764772
0.00012148523
0.00011413379
0.00010499102
9.3298603e-05
7.8630503e-05
6.0957163e-05
4.0788742e-05
1.6907719e-05
0.00013158068
0.00012766951
0.0001215037
0.00011414771
0.00010500028
9.3303864e-05
7.8632868e-05
6.0957845e-05
4.0788795e-05
1.6907802e-05
0.00013160152
0.00012768898
0.00012151986
0.0001141595
0.00010500777
9.3307841e-05
7.8634437e-05
6.095814e-05
4.0788726e-05
1.6907872e-05
0.00013162007
0.00012770615
0.0001215338
0.00011416931
0.00010501368
9.3310698e-05
7.8635334e-05
6.0958118e-05
4.0788564e-05
1.690793e-05
0.00013163637
0.00012772109
0.00012154564
0.00011417732
0.00010501818
9.331259e-05
7.863567e-05
6.0957844e-05
4.0788332e-05
1.6907978e-05
0.00013165051
0.00012773392
0.00012155555
0.0001141837
0.00010502144
9.3313662e-05
7.8635548e-05
6.0957374e-05
4.0788049e-05
1.6908016e-05
0.00013166261
0.00012774476
0.00012156367
0.00011418862
0.00010502364
9.3314041e-05
7.8635051e-05
6.0956752e-05
4.0787732e-05
1.6908046e-05
0.00013167278
0.00012775377
0.00012157016
0.00011419223
0.0001050249
9.3313841e-05
7.8634255e-05
6.0956016e-05
4.0787391e-05
1.6908068e-05
0.00013168118
0.00012776107
0.00012157518
0.00011419471
0.00010502538
9.3313166e-05
7.8633226e-05
6.0955199e-05
4.0787035e-05
1.6908084e-05
0.00013168794
0.00012776684
0.00012157889
0.00011419619
0.00010502519
9.3312114e-05
7.8632027e-05
6.095433e-05
4.0786673e-05
1.6908093e-05
0.00013169323
0.00012777122
0.00012158145
0.00011419683
0.00010502447
9.3310779e-05
7.8630714e-05
6.0953439e-05
4.0786316e-05
1.6908098e-05
0.00013169718
0.00012777437
0.00012158301
0.00011419677
0.00010502333
9.3309242e-05
7.862934e-05
6.0952552e-05
4.078597e-05
1.6908098e-05
0.00013169996
0.00012777645
0.00012158373
0.00011419614
0.00010502187
9.3307576e-05
7.8627948e-05
6.0951688e-05
4.0785645e-05
1.6908095e-05
0.00013170171
0.0001277776
0.00012158373
0.00011419506
0.00010502019
9.3305838e-05
7.862657e-05
6.0950863e-05
4.0785343e-05
1.690809e-05
0.00013170256
0.00012777795
0.00012158313
0.00011419361
0.00010501834
9.3304072e-05
7.8625228e-05
6.0950085e-05
4.0785065e-05
1.6908082e-05
0.00013170263
0.00012777761
0.00012158204
0.00011419188
0.00010501638
9.3302308e-05
7.8623934e-05
6.0949352e-05
4.0784807e-05
1.6908073e-05
)
;

boundaryField
{
    water_inlet
    {
        type            calculated;
        value           uniform 4.1926275e-05;
    }
    water_outlet
    {
        type            calculated;
        value           nonuniform List<scalar> 10(0.00013170263 0.00012777761 0.00012158204 0.00011419188 0.00010501638 9.3302308e-05 7.8623934e-05 6.0949352e-05 4.0784807e-05 1.6908073e-05);
    }
    water_wedge1
    {
        type            wedge;
    }
    water_wedge2
    {
        type            wedge;
    }
    water_to_rock
    {
        type            nutkWallFunction;
        blending        stepwise;
        value           nonuniform List<scalar> 
100
(
1.7358471e-06
1.9240026e-06
1.9263124e-06
1.8751054e-06
1.822911e-06
1.7867865e-06
1.7671179e-06
1.7584646e-06
1.7555993e-06
1.7553226e-06
1.7561179e-06
1.7574033e-06
1.7590035e-06
1.7608811e-06
1.7630284e-06
1.7654319e-06
1.7680554e-06
1.7708581e-06
1.7738124e-06
1.7768953e-06
1.7800822e-06
1.7833461e-06
1.7866596e-06
1.7899943e-06
1.793321e-06
1.796609e-06
1.799825e-06
1.8029327e-06
1.8058931e-06
1.8086667e-06
1.8112154e-06
1.8135066e-06
1.8155157e-06
1.8172282e-06
1.818641e-06
1.8197617e-06
1.8206067e-06
1.8211999e-06
1.8215695e-06
1.8217465e-06
1.821762e-06
1.8216464e-06
1.8214279e-06
1.8211321e-06
1.8207793e-06
1.8203873e-06
1.8199735e-06
1.8195525e-06
1.8191362e-06
1.8187335e-06
1.8183509e-06
1.8179929e-06
1.8176628e-06
1.8173621e-06
1.8170919e-06
1.8168523e-06
1.8166427e-06
1.8164622e-06
1.816309e-06
1.8161813e-06
1.8160769e-06
1.8159937e-06
1.8159294e-06
1.815882e-06
1.8158495e-06
1.8158298e-06
1.8158213e-06
1.8158222e-06
1.8158308e-06
1.8158455e-06
1.815865e-06
1.8158877e-06
1.8159126e-06
1.8159386e-06
1.8159651e-06
1.8159916e-06
1.8160175e-06
1.8160426e-06
1.8160665e-06
1.8160889e-06
1.8161097e-06
1.8161286e-06
1.8161457e-06
1.8161608e-06
1.8161741e-06
1.8161855e-06
1.8161952e-06
1.8162033e-06
1.81621e-06
1.8162153e-06
1.8162195e-06
1.8162225e-06
1.8162247e-06
1.816226e-06
1.8162266e-06
1.8162266e-06
1.8162261e-06
1.8162253e-06
1.8162241e-06
1.8162227e-06
)
;
    }
}


// ************************************************************************* //
