/*--------------------------------*- C++ -*----------------------------------*\
| =========                 |                                                 |
| \\      /  F ield         | OpenFOAM: The Open Source CFD Toolbox           |
|  \\    /   O peration     | Version:  2506                                  |
|   \\  /    A nd           | Website:  www.openfoam.com                      |
|    \\/     M anipulation  |                                                 |
\*---------------------------------------------------------------------------*/
FoamFile
{
    version     2.0;
    format      ascii;
    arch        "LSB;label=32;scalar=64";
    class       surfaceScalarField;
    location    "10000/water";
    object      phi;
}
// * * * * * * * * * * * * * * * * * * * * * * * * * * * * * * * * * * * * * //

dimensions      [1 0 -1 0 0 0 0];

oriented        oriented;

internalField   nonuniform List<scalar> 
1890
(
-4.1736246e-05
0.0022168351
-0.00015753622
0.0059586937
-0.00032930669
0.0087985477
-0.00054203243
0.010900937
-0.00078239503
0.012402155
-0.0010351826
0.013412336
-0.0012746193
0.014013996
-0.0014359745
0.014245356
-0.001284859
0.0140006
0.012745539
-3.1455821e-05
0.0022482909
-0.00011269722
0.0060399351
-0.00023219387
0.0089180443
-0.00037999425
0.011048737
-0.00054594259
0.012568103
-0.00071649908
0.013582893
-0.00086674523
0.014164242
-0.00093361972
0.01431223
-0.00073394527
0.013800926
0.012011594
-2.9138825e-05
0.0022774298
-0.00010672995
0.0061175262
-0.00022105542
0.0090323698
-0.00036160329
0.011189285
-0.00051700146
0.012723501
-0.00067116241
0.013737054
-0.00079396195
0.014287042
-0.00081139804
0.014329666
-0.00056729958
0.013556827
0.011444294
-2.7339932e-05
0.0023047697
-0.00010102595
0.0061912122
-0.00020924234
0.0091405862
-0.00034097892
0.011321022
-0.00048374658
0.012866269
-0.00061911469
0.013872422
-0.00071088145
0.014378809
-0.00067659878
0.014295384
-0.00042026097
0.01330049
0.011024033
-2.5625227e-05
0.0023303949
-9.4386123e-05
0.0062599731
-0.00019506686
0.0092412669
-0.00031669852
0.011442653
-0.00044589479
0.012995465
-0.00056132354
0.013987851
-0.00061882694
0.014436312
-0.00053651236
0.014213069
-0.00029565501
0.013059632
0.010728378
-2.4159485e-05
0.0023545544
-8.8799471e-05
0.0063246131
-0.00018306043
0.0093355278
-0.00029574164
0.011555335
-0.00041210884
0.013111832
-0.00050662336
0.014082365
-0.00052703731
0.014456726
-0.00040878592
0.014094818
-0.00020043389
0.01285128
0.010527944
-2.2965475e-05
0.0023775199
-8.4333441e-05
0.0063859811
-0.00017335338
0.0094245478
-0.00027826862
0.01166025
-0.00038232714
0.013215891
-0.00045437948
0.014154417
-0.00043820657
0.014440553
-0.00030321768
0.013959829
-0.00013378917
0.012681852
0.010394155
-2.2023833e-05
0.0023995437
-8.0769755e-05
0.006444727
-0.00016540572
0.0095091837
-0.00026327201
0.011758116
-0.00035472709
0.013307346
-0.00040244408
0.014202134
-0.00035545938
0.014393568
-0.00022236947
0.013826739
-8.9855497e-05
0.012549338
0.0103043
-2.1260561e-05
0.0024208043
-7.7812583e-05
0.006501279
-0.00015855231
0.0095899234
-0.00024948535
0.011849049
-0.00032712252
0.013384983
-0.00034954611
0.014224558
-0.00028212902
0.014326151
-0.000163002
0.013707612
-6.1425874e-05
0.012447762
0.010242874
-2.0607153e-05
0.0024414114
-7.5216662e-05
0.0065558885
-0.00015223238
0.0096669392
-0.00023577775
0.011932595
-0.00029784638
0.013447052
-0.00029644782
0.01422316
-0.00022023879
0.014249942
-0.00011980488
0.013607178
-4.2689149e-05
0.012370646
0.010200185
-2.0018285e-05
0.0024614297
-7.2804699e-05
0.0066086749
-0.00014600132
0.0097401358
-0.00022120572
0.012007799
-0.00026613517
0.013491981
-0.0002453197
0.014202344
-0.00016974811
0.014174371
-8.7951527e-05
0.013525381
-2.9805957e-05
0.0123125
0.010170379
-1.9463539e-05
0.0024808933
-7.0441405e-05
0.0066596528
-0.00013947747
0.0098091718
-0.0002050219
0.012073343
-0.00023228103
0.01351924
-0.00019838513
0.014168448
-0.00012919771
0.014105183
-6.3918785e-05
0.013460103
-2.0486096e-05
0.012269068
0.010149893
-1.8918748e-05
0.002499812
-6.8008112e-05
0.0067087422
-0.00013229869
0.0098734624
-0.00018675568
0.0121278
-0.00019748181
0.013529967
-0.00015698039
0.014127947
-9.6700634e-05
0.014044904
-4.5355169e-05
0.013408757
-1.3426807e-05
0.012237139
0.010136466
-1.8360399e-05
0.0025181724
-6.5381825e-05
0.0067557636
-0.00012410695
0.0099321875
-0.00016633456
0.012170028
-0.00016333305
0.013526965
-0.00012140691
0.014086021
-7.0530398e-05
0.013994027
-3.0719915e-05
0.013368947
-7.8895602e-06
0.012214309
0.010128576
-1.7761437e-05
0.0025359339
-6.2419686e-05
0.0068004218
-0.00011457696
0.0099843448
-0.00014416263
0.012199614
-0.00013124008
0.013514042
-9.1273247e-05
0.014046054
-4.929607e-05
0.01395205
-1.898609e-05
0.013338637
-3.4324393e-06
0.012198755
0.010125144
-1.7087932e-05
0.0025530218
-5.8952552e-05
0.0068422865
-0.0001034904
0.010028883
-0.00012105273
0.012217176
-0.00010208332
0.013495073
-6.5899176e-05
0.01400987
-3.1932036e-05
0.013918083
-9.4507671e-06
0.013316155
2.8693712e-07
0.012189018
0.010125431
-1.6296477e-05
0.0025693183
-5.4793273e-05
0.0068807833
-9.0832271e-05
0.010064922
-9.7998761e-05
0.012224343
-7.6209893e-05
0.013473284
-4.4571881e-05
0.013978232
-1.7626993e-05
0.013891138
-1.5570858e-06
0.013300085
3.3718487e-06
0.012184089
0.010128803
-1.5331775e-05
0.00258465
-4.9761993e-05
0.0069152135
-7.6852647e-05
0.010092012
-7.5898578e-05
0.012223388
-5.3588965e-05
0.013450975
-2.6634631e-05
0.013951277
-5.7255485e-06
0.013870229
4.9977888e-06
0.013289362
5.8494091e-06
0.012183237
0.010134652
-1.4126755e-05
0.0025987768
-4.3732771e-05
0.0069448195
-6.2044356e-05
0.010110324
-5.5379771e-05
0.012216724
-3.3986225e-05
0.013429581
-1.1512193e-05
0.013928803
4.2373047e-06
0.013854479
1.0368007e-05
0.013283231
7.8669168e-06
0.012185738
0.010142519
-1.2609171e-05
0.002611386
-3.6694847e-05
0.0069689052
-4.7031599e-05
0.010120661
-3.6775682e-05
0.012206468
-1.7080998e-05
0.013409886
1.3278655e-06
0.013910394
1.2526675e-05
0.01384328
1.4773692e-05
0.013280984
9.5156077e-06
0.012190996
0.010152034
-1.0718647e-05
0.0026221046
-2.8800965e-05
0.0069869875
-3.2420462e-05
0.01012428
-2.0181849e-05
0.012194229
-2.4816427e-06
0.013392186
1.2171048e-05
0.013895742
1.937587e-05
0.013836076
1.8388931e-05
0.013281971
1.0861074e-05
0.012198524
0.010162896
-8.4362766e-06
0.0026305409
-2.0369324e-05
0.0069989205
-1.8684737e-05
0.010122596
-5.5180029e-06
0.012181063
1.0030825e-05
0.013376637
2.1196621e-05
0.013884576
2.5023121e-05
0.013832249
2.1344381e-05
0.01328565
1.1950802e-05
0.012207918
0.010174846
-5.818904e-06
0.0026363598
-1.1825299e-05
0.0070049269
-6.1104063e-06
0.010116881
7.276994e-06
0.012167675
2.0570794e-05
0.013363344
2.8684524e-05
0.013876462
2.9654106e-05
0.013831279
2.3737785e-05
0.013291566
1.2818949e-05
0.012218836
0.010187665
-3.0142023e-06
0.002639374
-3.5959666e-06
0.0070055087
5.1027225e-06
0.010108182
1.8190801e-05
0.012154587
2.9354248e-05
0.01335218
3.4839621e-05
0.013870977
3.3406428e-05
0.013832713
2.5640437e-05
0.013299332
1.3489837e-05
0.012230987
0.010201155
-2.3417126e-07
0.0026396082
3.906824e-06
0.0070013677
1.4739778e-05
0.010097349
2.7284441e-05
0.012142042
3.6558805e-05
0.013342906
3.9811144e-05
0.013867724
3.6376291e-05
0.013836148
2.7100003e-05
0.013308609
1.3978539e-05
0.012244109
0.010215134
2.2769304e-06
0.0026373312
1.0308388e-05
0.0069933363
2.2681068e-05
0.010084976
3.4654936e-05
0.012130069
4.2307587e-05
0.013335253
4.3695789e-05
0.013866336
3.8620805e-05
0.013841223
2.8140773e-05
0.013319089
1.4290311e-05
0.012257959
0.010229424
4.3216956e-06
0.0026330095
1.5394945e-05
0.006982263
2.8920234e-05
0.010071451
4.0372904e-05
0.012118616
4.6677022e-05
0.013328949
4.6545394e-05
0.013866468
4.016317e-05
0.013847605
2.8766213e-05
0.013330486
1.4421424e-05
0.012272304
0.010243845
5.8172514e-06
0.0026271923
1.9123741e-05
0.0069689565
3.3493181e-05
0.010057082
4.4499643e-05
0.012107609
4.9715655e-05
0.013323733
4.8382908e-05
0.013867801
4.1004292e-05
0.013854983
2.8966174e-05
0.013342524
1.4362465e-05
0.012286908
0.010258208
6.7756941e-06
0.0026204166
2.156245e-05
0.0069541698
3.6487143e-05
0.010042157
4.7108563e-05
0.012096988
5.1467372e-05
0.013319374
4.9222629e-05
0.013870045
4.1138176e-05
0.013863068
2.8727035e-05
0.013354935
1.4103307e-05
0.012301531
0.010272311
7.2692493e-06
0.0026131473
2.2857505e-05
0.0069385815
3.8041993e-05
0.010026972
4.830209e-05
0.012086728
5.1992418e-05
0.013315684
4.9089881e-05
0.013872948
4.0567761e-05
0.01387159
2.8042496e-05
0.01336746
1.3638331e-05
0.012315935
0.010285949
7.3945461e-06
0.0026057528
2.3198944e-05
0.0069227771
3.8341499e-05
0.01001183
4.8219399e-05
0.01207685
5.1381747e-05
0.013312521
4.8036367e-05
0.013876293
3.9318224e-05
0.013880308
2.6923098e-05
0.013379855
1.2971246e-05
0.012329887
0.010298921
7.2476279e-06
0.0025985052
2.2789049e-05
0.0069072357
3.7596821e-05
0.0099970221
4.703343e-05
0.012067413
4.9761453e-05
0.013309793
4.614747e-05
0.013879907
3.7444264e-05
0.013889011
2.540173e-05
0.013391898
1.2117909e-05
0.012343171
0.010311039
6.911448e-06
0.0025915937
2.1819645e-05
0.0068923275
3.6027534e-05
0.0099828142
4.4939927e-05
0.012058501
4.7287899e-05
0.013307445
4.3540826e-05
0.013883654
3.5030153e-05
0.013897522
2.3533874e-05
0.013403394
1.1106236e-05
0.012355599
0.010322145
6.4522033e-06
0.0025851415
2.0459114e-05
0.0068783206
3.3845001e-05
0.0099694283
4.2143079e-05
0.012050203
4.4136811e-05
0.013305452
4.0358265e-05
0.013887433
3.2183761e-05
0.013905697
2.1393359e-05
0.013414185
9.9739282e-06
0.012367018
0.010332119
5.9202211e-06
0.0025792213
1.8847234e-05
0.0068653936
3.1240487e-05
0.0099570351
3.8841573e-05
0.012042602
4.0489942e-05
0.013303803
3.6754026e-05
0.013891169
2.9026743e-05
0.013913424
1.9065009e-05
0.013424146
8.7643261e-06
0.012377319
0.010340883
5.3525744e-06
0.0025738687
1.7095256e-05
0.0068536509
2.8378592e-05
0.0099457518
3.5217789e-05
0.012035763
3.6522796e-05
0.013302498
3.2882729e-05
0.013894809
2.5683922e-05
0.013920623
1.6636527e-05
0.013433194
7.5219242e-06
0.012386434
0.010348405
4.7759424e-06
0.0025690928
1.528876e-05
0.0068431381
2.5395092e-05
0.0099356454
3.1430964e-05
0.012029727
3.2395228e-05
0.013301534
2.8889239e-05
0.013898315
2.2273943e-05
0.013927238
1.4191324e-05
0.013441276
6.2886058e-06
0.012394336
0.010354694
4.2090828e-06
0.0025648837
1.3491565e-05
0.0068338556
2.2397761e-05
0.0099267392
2.7613969e-05
0.012024511
2.8245365e-05
0.013300903
2.4901353e-05
0.013901659
1.8902182e-05
0.013933237
1.1802943e-05
0.013448376
5.1005171e-06
0.012401039
0.010359794
3.6648609e-06
0.0025612188
1.1749822e-05
0.0068257706
1.9469115e-05
0.0099190199
2.3873122e-05
0.012020107
2.4186972e-05
0.013300589
2.1025803e-05
0.01390482
1.5656618e-05
0.013938606
9.5319414e-06
0.0134545
3.9867242e-06
0.012406584
0.010363781
3.1517444e-06
0.0025580671
1.0095625e-05
0.0068188267
1.6669755e-05
0.0099124458
2.0289673e-05
0.012016487
2.0308973e-05
0.01330057
1.7346538e-05
0.013907782
1.2605762e-05
0.013943347
7.424201e-06
0.013459682
2.9682013e-06
0.01241104
0.010366749
2.6749867e-06
0.0025553921
8.5501747e-06
0.0068129515
1.4042082e-05
0.0099069538
1.6922614e-05
0.012013606
1.6677023e-05
0.013300815
1.3925365e-05
0.013910534
9.7989024e-06
0.013947473
5.5112295e-06
0.013463969
2.0583616e-06
0.012414493
0.010368807
2.2374763e-06
0.0025531546
7.126316e-06
0.0068080627
1.1613701e-05
0.0099024664
1.3811854e-05
0.012011408
1.3335989e-05
0.013301291
1.0803802e-05
0.013913066
7.2675783e-06
0.01395101
3.8113853e-06
0.013467426
1.2637568e-06
0.01241704
0.010370071
1.840389e-06
0.0025513142
5.8306302e-06
0.0068040724
9.4005931e-06
0.0098988965
1.0981701e-05
0.012009827
1.0313262e-05
0.013301959
8.0061552e-06
0.013915373
5.0284148e-06
0.013953987
2.3322744e-06
0.013470122
5.8560522e-07
0.012418787
0.010370657
1.4836876e-06
0.0025498305
4.665072e-06
0.0068008911
7.4097812e-06
0.0098961518
8.4439643e-06
0.012008793
7.6219156e-06
0.013302781
5.5424687e-06
0.013917453
3.085828e-06
0.013956444
1.0739593e-06
0.013472134
3.1843754e-08
0.012419829
0.010370689
1.1663866e-06
0.0025486642
3.6279327e-06
0.0067984295
5.6409243e-06
0.0098941388
6.1998373e-06
0.012008234
5.2625381e-06
0.013303719
3.4104989e-06
0.013919305
1.4352465e-06
0.013958419
3.8161248e-08
0.013473531
-4.1230544e-07
0.01242028
0.010370276
8.8687062e-07
0.0025477773
2.7149595e-06
0.0067966014
4.0884199e-06
0.0098927654
4.2428625e-06
0.012008079
3.22714e-06
0.013304735
1.6010827e-06
0.013920931
7.1928107e-08
0.013959948
-7.9812364e-07
0.013474401
-7.7157585e-07
0.012420253
0.010369505
6.4312441e-07
0.0025471342
1.9202646e-06
0.0067953243
2.7432418e-06
0.0098919424
2.5618113e-06
0.012008261
1.5032946e-06
0.013305793
1.0438973e-07
0.01392233
-1.0319701e-06
0.013961085
-1.4673096e-06
0.013474836
-1.0502013e-06
0.012419836
0.010368455
4.3287539e-07
0.0025467013
1.2368651e-06
0.0067945203
1.5941077e-06
0.0098915851
1.1427725e-06
0.012008712
7.7478453e-08
0.013306858
-1.1099073e-06
0.013923517
-1.9134642e-06
0.013961888
-1.9827103e-06
0.013474905
-1.2544458e-06
0.012419108
0.0103672
2.5376022e-07
0.0025464475
6.5737781e-07
0.0067941167
6.2938895e-07
0.0098916131
-2.881112e-08
0.01200937
-1.0804117e-06
0.01330791
-2.0800436e-06
0.013924517
-2.593314e-06
0.013962402
-2.3599721e-06
0.013474672
-1.3926791e-06
0.01241814
0.010365807
1.0348167e-07
0.002546344
1.7461533e-07
0.0067940455
-1.647294e-07
0.0098919524
-9.8007695e-07
0.012010186
-2.0063313e-06
0.013308936
-2.8306577e-06
0.013925341
-3.0936408e-06
0.013962665
-2.6164021e-06
0.013474195
-1.4743102e-06
0.012416998
0.010364333
-2.0469075e-08
0.0025463645
-2.2079179e-07
0.0067942459
-8.0847852e-07
0.0098925401
-1.7405043e-06
0.012011118
-2.7242212e-06
0.01330992
-3.3862568e-06
0.013926003
-3.4371877e-06
0.013962716
-2.7694793e-06
0.013473527
-1.5087211e-06
0.012415737
0.010362824
-1.2110719e-07
0.0025464856
-5.3970771e-07
0.0067946645
-1.3207156e-06
0.0098933211
-2.329384e-06
0.012012126
-3.2571952e-06
0.013310848
-3.7711227e-06
0.013926517
-3.6460029e-06
0.01396259
-2.8357274e-06
0.013472717
-1.5044769e-06
0.012414406
0.01036132
-2.0120886e-07
0.0025466868
-7.9083683e-07
0.0067952541
-1.7150471e-06
0.0098942454
-2.7658315e-06
0.012013177
-3.6278335e-06
0.01331171
-4.0084538e-06
0.013926898
-3.7406688e-06
0.013962323
-2.8301764e-06
0.013471806
-1.469265e-06
0.012413045
0.010359851
-2.6298797e-07
0.0025469498
-9.8145458e-07
0.0067959726
-2.0046888e-06
0.0098952686
-3.0682043e-06
0.012014241
-3.8575136e-06
0.013312499
-4.1197918e-06
0.01392716
-3.7398301e-06
0.013961943
-2.7660229e-06
0.013470833
-1.4094911e-06
0.012411689
0.010358441
-3.0854457e-07
0.0025472584
-1.1185994e-06
0.0067967827
-2.2024185e-06
0.0098963525
-3.2541042e-06
0.012015292
-3.9664991e-06
0.013313211
-4.1252274e-06
0.013927319
-3.660546e-06
0.013961478
-2.6550813e-06
0.013469827
-1.3307799e-06
0.012410365
0.01035711
-3.3988208e-07
0.0025475983
-1.2090312e-06
0.0067976518
-2.3205014e-06
0.0098974639
-3.3403242e-06
0.012016312
-3.9739412e-06
0.013313845
-4.0435129e-06
0.013927388
-3.5185137e-06
0.013960953
-2.5080448e-06
0.013468817
-1.2381329e-06
0.012409095
0.010355872
-3.5890551e-07
0.0025479572
-1.2592139e-06
0.0067985521
-2.3706492e-06
0.0098985754
-3.342825e-06
0.012017284
-3.8978795e-06
0.0133144
-3.8921347e-06
0.013927383
-3.3282007e-06
0.013960389
-2.3346601e-06
0.013467823
-1.1360074e-06
0.012407896
0.010354736
-3.6743641e-07
0.0025483246
-1.2753135e-06
0.00679946
-2.364004e-06
0.009899664
-3.2766852e-06
0.012018197
-3.7552179e-06
0.013314879
-3.6873078e-06
0.013927315
-3.1028944e-06
0.013959805
-2.1438423e-06
0.013466864
-1.0285852e-06
0.012406781
0.010353708
-3.6716753e-07
0.0025486918
-1.263084e-06
0.0068003559
-2.3109188e-06
0.0099007119
-3.1558e-06
0.012019042
-3.5613342e-06
0.013315284
-3.443571e-06
0.013927197
-2.854335e-06
0.013959215
-1.9433419e-06
0.013465953
-9.1938007e-07
0.012405757
0.010352788
-3.5966834e-07
0.0025490514
-1.2278399e-06
0.0068012241
-2.2208818e-06
0.0099017049
-2.9927425e-06
0.012019814
-3.3299264e-06
0.013315621
-3.1736394e-06
0.013927041
-2.5925795e-06
0.013958634
-1.7396753e-06
0.0134651
-8.1136026e-07
0.012404828
0.010351977
-3.4635818e-07
0.0025493978
-1.1743691e-06
0.0068020521
-2.1023497e-06
0.0099026329
-2.798541e-06
0.01202051
-3.0727609e-06
0.013315896
-2.8881512e-06
0.013926856
-2.3257838e-06
0.013958072
-1.5379313e-06
0.013464312
-7.0674893e-07
0.012403997
0.01035127
-3.2849996e-07
0.0025497263
-1.1069089e-06
0.0068028305
-1.9627121e-06
0.0099034887
-2.5826485e-06
0.01202113
-2.7996688e-06
0.013316113
-2.5957162e-06
0.013926652
-2.0602767e-06
0.013957537
-1.3418411e-06
0.013463594
-6.0701406e-07
0.012403262
0.010350663
-3.0722073e-07
0.0025500335
-1.0291878e-06
0.0068035524
-1.8083671e-06
0.0099042679
-2.3530895e-06
0.012021675
-2.5187912e-06
0.013316278
-2.3032312e-06
0.013926437
-1.8009092e-06
0.013957034
-1.1540929e-06
0.013462947
-5.1317933e-07
0.012402621
0.01035015
-2.8350101e-07
0.002550317
-9.4443017e-07
0.0068042134
-1.6447718e-06
0.0099049682
-2.1165707e-06
0.012022146
-2.2367491e-06
0.013316398
-2.0161079e-06
0.013926216
-1.5512938e-06
0.013956569
-9.76509e-07
0.013462372
-4.257574e-07
0.012402071
0.010349724
-2.5821159e-07
0.0025505752
-8.5545576e-07
0.0068048106
-1.4766312e-06
0.0099055894
-1.8787859e-06
0.012022549
-1.9590586e-06
0.013316479
-1.7387543e-06
0.013925996
-1.3142853e-06
0.013956145
-8.1047145e-07
0.013461868
-3.4513236e-07
0.012401605
0.010349379
-2.3211301e-07
0.0025508073
-7.6470745e-07
0.0068053432
-1.3079791e-06
0.0099061327
-1.6445471e-06
0.012022885
-1.6903127e-06
0.013316525
-1.4747694e-06
0.01392578
-1.0921547e-06
0.013955762
-6.5703971e-07
0.013461433
-2.7158048e-07
0.01240122
0.010349108
-2.0586255e-07
0.0025510132
-6.7428994e-07
0.0068058117
-1.1422545e-06
0.0099066006
-1.4179068e-06
0.012023161
-1.4343103e-06
0.013316541
-1.2270796e-06
0.013925573
-8.8671515e-07
0.013955422
-5.1703249e-07
0.013461064
-2.0525518e-07
0.012400908
0.010348902
-1.8002999e-07
0.0025511932
-5.8600602e-07
0.0068062176
-9.8236864e-07
0.009906997
-1.2022427e-06
0.012023381
-1.194176e-06
0.013316533
-9.9803927e-07
0.013925377
-6.9939568e-07
0.013955123
-3.9110397e-07
0.013460755
-1.4637929e-07
0.012400663
0.010348756
-1.5507685e-07
0.0025513483
-5.0132111e-07
0.0068065639
-8.3065086e-07
0.0099073263
-1.0001839e-06
0.01202355
-9.7222567e-07
0.013316505
-7.8928699e-07
0.013925194
-5.3107922e-07
0.013954865
-2.7954794e-07
0.013460504
-9.4918084e-08
0.012400479
0.010348661
-1.3137633e-07
0.0025514797
-4.213983e-07
0.0068068539
-6.889006e-07
0.0099075938
-8.1367037e-07
0.012023675
-7.7005165e-07
0.013316461
-6.0179632e-07
0.013925025
-3.8213128e-07
0.013954645
-1.8234968e-07
0.013460304
-5.0794019e-08
0.012400347
0.01034861
-1.0920074e-07
0.0025515889
-3.4707515e-07
0.0068070917
-5.5834407e-07
0.0099078051
-6.4389209e-07
0.01202376
-5.8843423e-07
0.013316406
-4.357842e-07
0.013924873
-2.5230303e-07
0.013954462
-9.9023944e-08
0.013460151
-1.3193009e-08
0.012400261
0.010348597
-8.8736581e-08
0.0025516776
-2.7890397e-07
0.0068072819
-4.3971148e-07
0.0099079659
-4.9140456e-07
0.012023812
-4.2747813e-07
0.013316342
-2.908448e-07
0.013924736
-1.4078435e-07
0.013954312
-2.8365025e-08
0.013460038
1.8279845e-08
0.012400215
0.010348615
-7.0098572e-08
0.0025517477
-2.1718784e-07
0.006807429
-3.3330733e-07
0.009908082
-3.5622224e-07
0.012023835
-2.8672606e-07
0.013316272
-1.6602381e-07
0.013924615
-4.6132093e-08
0.013954192
3.0540963e-08
0.013459962
4.3316445e-08
0.012400202
0.010348659
-5.3330039e-08
0.002551801
-1.6200142e-07
0.0068075377
-2.3904327e-07
0.009908159
-2.3786514e-07
0.012023834
-1.6516435e-07
0.0133162
-5.9723772e-08
0.01392451
3.3109228e-08
0.013954099
7.8071566e-08
0.013459917
6.2520601e-08
0.012400217
0.010348721
-3.8432474e-08
0.0025518395
-1.1326553e-07
0.0068076125
-1.5657091e-07
0.0099082023
-1.3551983e-07
0.012023813
-6.1378761e-08
0.013316125
2.9623246e-08
0.013924419
9.7650009e-08
0.013954031
1.1517801e-07
0.013459899
7.6812768e-08
0.012400256
0.010348798
-2.5363116e-08
0.0025518648
-7.0766908e-08
0.0068076579
-8.5312892e-08
0.0099082169
-4.8039777e-08
0.012023776
2.6066104e-08
0.013316051
1.0285473e-07
0.013924342
1.4858029e-07
0.013953985
1.4328558e-07
0.013459904
8.7018207e-08
0.012400312
0.010348885
-1.4054793e-08
0.0025518789
-3.4202159e-08
0.0068076781
-2.4507993e-08
0.0099082072
2.5602473e-08
0.012023725
9.7871942e-08
0.013315979
1.6094589e-07
0.013924279
1.8748465e-07
0.013953959
1.6359942e-07
0.013459928
9.3748789e-08
0.012400382
0.010348979
-4.4076754e-09
0.0025518833
-3.1745918e-09
0.0068076768
2.6435447e-08
0.0099081776
8.5931571e-08
0.012023666
1.5488333e-07
0.01331591
2.0546859e-07
0.013924229
2.157702e-07
0.013953949
1.7713799e-07
0.013459967
9.7511308e-08
0.012400462
0.010349076
3.6623487e-09
0.0025518796
2.2550868e-08
0.0068076579
6.7865769e-08
0.0099081323
1.3367919e-07
0.0120236
1.9853129e-07
0.013315845
2.3787682e-07
0.013924189
2.3469184e-07
0.013953952
1.8477546e-07
0.013460017
9.8731644e-08
0.012400548
0.010349175
1.0219117e-08
0.0025518694
4.3183475e-08
0.006807625
1.003944e-07
0.0099080751
1.7002203e-07
0.012023531
2.3018058e-07
0.013315785
2.5951917e-07
0.01392416
2.453747e-07
0.013953966
1.8727078e-07
0.013460075
9.7742814e-08
0.012400637
0.010349273
1.537211e-08
0.002551854
5.9161616e-08
0.0068075812
1.2489364e-07
0.0099080093
1.9616945e-07
0.012023459
2.5121268e-07
0.01331573
2.7174394e-07
0.013924139
2.4893765e-07
0.013953989
1.8536548e-07
0.013460138
9.4882155e-08
0.012400728
0.010349368
1.9259027e-08
0.0025518348
7.09653e-08
0.0068075295
1.4225472e-07
0.009907938
2.1334296e-07
0.012023388
2.6301186e-07
0.01331568
2.7588906e-07
0.013924126
2.4647849e-07
0.013954018
1.7979636e-07
0.013460205
9.0484926e-08
0.012400817
0.010349458
2.202548e-08
0.0025518128
7.9095963e-08
0.0068074724
1.533929e-07
0.0099078637
2.2279151e-07
0.012023319
2.6698529e-07
0.013315636
2.7331051e-07
0.01392412
2.3911253e-07
0.013954052
1.7131459e-07
0.013460273
8.4889619e-08
0.012400903
0.010349543
2.3821745e-08
0.0025517889
8.4061669e-08
0.0068074122
1.5923e-07
0.0099077886
2.2576023e-07
0.012023252
2.6452793e-07
0.013315597
2.6534943e-07
0.013924119
2.2795714e-07
0.01395409
1.6068068e-07
0.01346034
7.8473422e-08
0.012400986
0.010349621
2.4790431e-08
0.0025517641
8.6351229e-08
0.0068073506
1.6064509e-07
0.0099077143
2.2342866e-07
0.012023189
2.5694497e-07
0.013315564
2.5325274e-07
0.013924123
2.1403294e-07
0.013954129
1.4859133e-07
0.013460406
7.1549544e-08
0.012401063
0.010349693
2.5070169e-08
0.0025517391
8.643189e-08
0.0068072892
1.5846923e-07
0.0099076422
2.1689697e-07
0.012023131
2.4544254e-07
0.013315535
2.381535e-07
0.01392413
1.982623e-07
0.013954169
1.3567182e-07
0.013460468
6.4438377e-08
0.012401134
0.010349757
2.4782856e-08
0.0025517143
8.4718007e-08
0.0068072293
1.5343421e-07
0.0099075735
2.0711299e-07
0.012023077
2.310305e-07
0.013315511
2.2097393e-07
0.01392414
1.8136719e-07
0.013954208
1.2239289e-07
0.013460527
5.7334139e-08
0.012401199
0.010349815
2.4040429e-08
0.0025516903
8.1583661e-08
0.0068071718
1.4618563e-07
0.0099075089
1.9490092e-07
0.012023029
2.1456898e-07
0.013315492
2.0248138e-07
0.013924152
1.6393406e-07
0.013954247
1.0912115e-07
0.013460582
5.0422075e-08
0.012401258
0.010349865
2.2937513e-08
0.0025516673
7.7343953e-08
0.0068071173
1.372606e-07
0.009907449
1.8092693e-07
0.012022985
1.9672959e-07
0.013315476
1.8324091e-07
0.013924166
1.4635972e-07
0.013954284
9.6073614e-08
0.013460632
4.3762331e-08
0.01240131
0.010349909
2.1561146e-08
0.0025516458
7.2280398e-08
0.0068070666
1.2713117e-07
0.0099073941
1.657701e-07
0.012022946
1.7808546e-07
0.013315464
1.6373113e-07
0.01392418
1.2897459e-07
0.013954319
8.3430295e-08
0.013460678
3.7426715e-08
0.012401356
0.010349946
1.9984536e-08
0.0025516258
6.6631345e-08
0.00680702
1.1619537e-07
0.0099073446
1.4991177e-07
0.012022913
1.5910899e-07
0.013315454
1.4433299e-07
0.013924195
1.1203222e-07
0.013954351
7.1314862e-08
0.013460719
3.143403e-08
0.012401396
0.010349978
1.8276733e-08
0.0025516075
6.0615404e-08
0.0068069776
1.0481452e-07
0.0099073004
1.337899e-07
0.012022884
1.4023507e-07
0.013315448
1.2541417e-07
0.01392421
9.5792462e-08
0.013954381
5.9881068e-08
0.013460754
2.5865167e-08
0.01240143
0.010350004
1.6493517e-08
0.002551591
5.4416437e-08
0.0068069397
9.3292465e-08
0.0099072615
1.1777462e-07
0.012022859
1.2182212e-07
0.013315444
1.0726919e-07
0.013924224
8.0456647e-08
0.013954407
4.9229735e-08
0.013460786
2.0727932e-08
0.012401458
0.010350024
1.4688499e-08
0.0025515763
4.8199441e-08
0.0068069062
8.1902347e-08
0.0099072278
1.0219156e-07
0.012022839
1.0419555e-07
0.013315442
9.0170411e-08
0.013924238
6.6224915e-08
0.013954431
3.9496466e-08
0.013460812
1.6113709e-08
0.012401482
0.01035004
1.2897952e-08
0.0025515634
4.2088786e-08
0.006806877
7.0843964e-08
0.009907199
8.727425e-08
0.012022822
8.7561412e-08
0.013315442
7.4267579e-08
0.013924252
5.3177985e-08
0.013954452
3.0689314e-08
0.013460835
1.1971939e-08
0.0124015
0.010350052
1.1162728e-08
0.0025515522
3.6201513e-08
0.006806852
6.030187e-08
0.0099071749
7.3227777e-08
0.012022809
7.2114045e-08
0.013315443
5.9704225e-08
0.013924264
4.1403053e-08
0.013954471
2.2870932e-08
0.013460853
8.3925986e-09
0.012401515
0.010350061
9.5004139e-09
0.0025515427
3.0602345e-08
0.0068068309
5.037068e-08
0.0099071552
6.0144607e-08
0.0120228
5.7892058e-08
0.013315445
4.6462486e-08
0.013924276
3.0831503e-08
0.013954486
1.5937896e-08
0.013460868
5.2341288e-09
0.012401526
0.010350066
7.9358787e-09
0.0025515348
2.5356079e-08
0.0068068135
4.1147154e-08
0.0099071394
4.8118747e-08
0.012022793
4.4975475e-08
0.013315448
3.4583439e-08
0.013924286
2.1469505e-08
0.013954499
9.8844586e-09
0.01346088
2.5498732e-09
0.012401533
0.010350069
6.4832269e-09
0.0025515283
2.0503055e-08
0.0068067994
3.270875e-08
0.0099071272
3.7289091e-08
0.012022788
3.3554823e-08
0.013315452
2.4301437e-08
0.013924295
1.3555223e-08
0.01395451
4.8974182e-09
0.013460889
3.7395219e-10
0.012401537
0.010350069
2.9242366e-09
9.2255559e-09
1.4594488e-08
1.6419531e-08
1.4470665e-08
1.0147688e-08
5.2879106e-09
1.5699214e-09
-1.6020067e-10
)
;

boundaryField
{
    water_inlet
    {
        type            calculated;
        value           nonuniform List<scalar> 10(-0.0021750989 -0.0058428937 -0.0086267772 -0.010688211 -0.012161792 -0.013159549 -0.01377456 -0.014084001 -0.014151716 -0.014030398);
    }
    water_outlet
    {
        type            calculated;
        value           nonuniform List<scalar> 10(0.0025515254 0.0068067931 0.0099071218 0.012022786 0.013315454 0.0139243 0.013954515 0.013460892 0.012401539 0.010350069);
    }
    water_wedge1
    {
        type            wedge;
        value           nonuniform List<scalar> 
1000
(
-1.1296023e-13
-1.4267631e-13
-1.1216245e-13
-1.0631365e-13
-9.9355962e-14
-9.3387652e-14
-8.868928e-14
-8.4954497e-14
-8.1977094e-14
-7.9490886e-14
-7.7283685e-14
-7.5237249e-14
-7.3262253e-14
-7.1280695e-14
-6.9186336e-14
-6.6854712e-14
-6.4132458e-14
-6.0817818e-14
-5.6668977e-14
-5.1411473e-14
-4.4796727e-14
-3.6658333e-14
-2.707763e-14
-1.6557771e-14
-5.8612206e-15
4.0677227e-15
1.2372705e-14
1.8670762e-14
2.2896893e-14
2.5292839e-14
2.622405e-14
2.6007284e-14
2.5022037e-14
2.3514397e-14
2.1687752e-14
1.9705521e-14
1.7626275e-14
1.5583178e-14
1.3616305e-14
1.1736142e-14
9.9930862e-15
8.3894972e-15
6.930271e-15
5.6124348e-15
4.4421901e-15
3.4059419e-15
2.4959654e-15
1.7162462e-15
1.0457352e-15
4.7529204e-16
1.3161922e-17
-3.6499352e-16
-6.7375482e-16
-9.0954309e-16
-1.0850974e-15
-1.2141309e-15
-1.2897409e-15
-1.3252167e-15
-1.3342937e-15
-1.3095359e-15
-1.2639138e-15
-1.2035335e-15
-1.1305659e-15
-1.0456306e-15
-9.5624032e-16
-8.6393465e-16
-7.657061e-16
-6.7130595e-16
-5.8689975e-16
-4.9792106e-16
-4.132758e-16
-3.4344004e-16
-2.7307292e-16
-2.0843684e-16
-1.5367151e-16
-1.0641589e-16
-6.6111893e-17
-2.7048978e-17
4.8621682e-18
3.1529637e-17
5.1465191e-17
6.1243585e-17
6.7726157e-17
7.6231536e-17
8.6865247e-17
8.640863e-17
8.4183056e-17
8.7763424e-17
7.8688845e-17
6.9779127e-17
7.2988588e-17
6.284626e-17
5.3363426e-17
5.4592684e-17
4.5565995e-17
3.7350975e-17
3.5400804e-17
2.641969e-17
1.7020905e-17
8.2482447e-18
-6.8081176e-13
-1.0335441e-12
-8.3928946e-13
-7.9752746e-13
-7.4939822e-13
-7.0313662e-13
-6.6536468e-13
-6.3522841e-13
-6.1093595e-13
-5.9052956e-13
-5.7245002e-13
-5.5560549e-13
-5.391243e-13
-5.2219856e-13
-5.0397449e-13
-4.8343236e-13
-4.5934454e-13
-4.3018948e-13
-3.9436618e-13
-3.505532e-13
-2.981401e-13
-2.3765627e-13
-1.7103317e-13
-1.0155214e-13
-3.3367736e-14
2.8949346e-14
8.1484708e-14
1.2214768e-13
1.5064058e-13
1.6797515e-13
1.7589193e-13
1.7634908e-13
1.71266e-13
1.622735e-13
1.5073111e-13
1.3769247e-13
1.2392749e-13
1.1004126e-13
9.6444653e-14
8.3440196e-14
7.1224444e-14
5.9905524e-14
4.954933e-14
4.0193287e-14
3.1828028e-14
2.4418213e-14
1.7936032e-14
1.2316481e-14
7.510888e-15
3.4678067e-15
1.1628346e-16
-2.6149662e-15
-4.8048656e-15
-6.5019034e-15
-7.7719916e-15
-8.665948e-15
-9.2172157e-15
-9.4918777e-15
-9.53415e-15
-9.3769904e-15
-9.0629553e-15
-8.6207381e-15
-8.0840288e-15
-7.4796268e-15
-6.8357831e-15
-6.1634185e-15
-5.4762309e-15
-4.8065012e-15
-4.1595917e-15
-3.5412709e-15
-2.9573242e-15
-2.4134886e-15
-1.9185496e-15
-1.4759916e-15
-1.0823343e-15
-7.3321061e-16
-4.2945134e-16
-1.6988062e-16
4.8443912e-17
2.2396322e-16
3.5977014e-16
4.6778317e-16
5.4707839e-16
5.977531e-16
6.3145686e-16
6.3967435e-16
6.3474825e-16
6.2461899e-16
5.9428341e-16
5.5547674e-16
5.1719554e-16
4.7771717e-16
4.3388074e-16
3.830696e-16
3.3512954e-16
2.9656896e-16
2.5290155e-16
2.0691589e-16
1.7292324e-16
1.0131645e-16
3.1339112e-12
4.8023016e-12
3.9072356e-12
3.7113892e-12
3.4900557e-12
3.2689342e-12
3.0860183e-12
2.9387794e-12
2.8176156e-12
2.7124751e-12
2.6152684e-12
2.5197171e-12
2.4205074e-12
2.3123562e-12
2.1894944e-12
2.046114e-12
1.8774948e-12
1.6811031e-12
1.4574269e-12
1.2105513e-12
9.4809119e-13
6.8016623e-13
4.175989e-13
1.7019955e-13
-5.3295284e-14
-2.455311e-13
-4.0215982e-13
-5.2204259e-13
-6.0637446e-13
-6.5807817e-13
-6.8130391e-13
-6.8087727e-13
-6.6176193e-13
-6.2866566e-13
-5.8577213e-13
-5.3662373e-13
-4.8411261e-13
-4.304946e-13