/*--------------------------------*- C++ -*----------------------------------*\
| =========                 |                                                 |
| \\      /  F ield         | OpenFOAM: The Open Source CFD Toolbox           |
|  \\    /   O peration     | Version:  2506                                  |
|   \\  /    A nd           | Website:  www.openfoam.com                      |
|    \\/     M anipulation  |                                                 |
\*---------------------------------------------------------------------------*/
FoamFile
{
    version     2.0;
    format      ascii;
    arch        "LSB;label=32;scalar=64";
    class       volVectorField;
    location    "10000/water";
    object      U;
}
// * * * * * * * * * * * * * * * * * * * * * * * * * * * * * * * * * * * * * //

dimensions      [0 1 -1 0 0 0 0];

internalField   nonuniform List<vector> 
1000
(
(0.25225587 -0.00012859767 2.108327e-18)
(0.25226258 -0.00027067836 4.6124368e-19)
(0.25227485 -0.0004145054 2.0659803e-18)
(0.25228819 -0.00055572716 8.4543188e-19)
(0.25229018 -0.0006857579 7.3544691e-19)
(0.25223998 -0.00079863172 -6.8093443e-20)
(0.25200713 -0.00089615194 -1.3767963e-19)
(0.25115686 -0.0010460356 -3.3517426e-19)
(0.24780473 -0.0012820719 -2.5827546e-19)
(0.23308261 0.0010121611 -4.895791e-19)
(0.25653043 -7.7330451e-05 1.626364e-18)
(0.25653977 -0.00018903831 9.4111667e-19)
(0.25655871 -0.00029096537 2.337413e-18)
(0.25657276 -0.00039024487 1.0313585e-18)
(0.25654377 -0.00048175039 6.0355903e-19)
(0.25636039 -0.00055898443 -2.8916456e-20)
(0.25570613 -0.00060536498 -2.2801989e-19)
(0.25355952 -0.00065441363 -4.7419996e-19)
(0.24574266 -0.0008472477 -4.0997832e-19)
(0.21968686 0.00025718805 -5.9684741e-19)
(0.26021787 -7.3909988e-05 -7.419917e-19)
(0.26022468 -0.00018059834 -8.378649e-20)
(0.26023383 -0.00027741912 5.5227343e-19)
(0.26021807 -0.00037159742 3.6280573e-19)
(0.26010153 -0.00045735772 -3.9283868e-19)
(0.25968006 -0.00053044596 -3.1591921e-19)
(0.25840621 -0.00057093093 -2.178709e-19)
(0.25452353 -0.00056554748 -4.4376753e-19)
(0.24186464 -0.00061987685 -5.8036682e-19)
(0.20839343 1.1252622e-05 -5.5551004e-19)
(0.26340526 -6.8945981e-05 -4.2643695e-19)
(0.26340956 -0.00017058509 5.0412677e-20)
(0.26340597 -0.00026279228 3.3131179e-19)
(0.2633478 -0.00035138366 2.7587633e-19)
(0.26310913 -0.00042951133 -1.2361484e-19)
(0.26237282 -0.00049394984 -4.9074884e-19)
(0.26030372 -0.00052750971 -3.3018729e-19)
(0.25430845 -0.00049289908 -4.1959256e-19)
(0.23723183 -0.0004593425 -5.1369407e-19)
(0.19958845 -4.8876407e-05 -4.0622974e-19)
(0.26641628 -6.4388927e-05 -1.1522403e-18)
(0.26641556 -0.00015946868 7.4882615e-19)
(0.266392 -0.00024539851 8.068556e-19)
(0.26627267 -0.00032748758 5.9412603e-19)
(0.26586989 -0.0003979174 2.0978013e-19)
(0.26472852 -0.0004525062 1.1970851e-19)
(0.2616454 -0.00047360859 -1.2200232e-19)
(0.25321245 -0.00041483814 -3.8574234e-19)
(0.23271017 -0.00033459307 -4.3153048e-19)
(0.19329518 -5.0633645e-05 -3.4785449e-19)
(0.26927574 -6.0867462e-05 -4.1528982e-19)
(0.26926716 -0.00015024315 6.0589359e-19)
(0.26921481 -0.00023070425 9.3325083e-19)
(0.26901237 -0.00030702716 5.5092914e-19)
(0.26839648 -0.00037049984 2.7599939e-19)
(0.26673518 -0.00041493241 2.4242845e-19)
(0.26236788 -0.00041871871 -1.0732836e-20)
(0.25136278 -0.00033835076 -2.9483619e-19)
(0.22869803 -0.00023662962 -2.2807558e-19)
(0.1890213 -3.9495167e-05 -2.9834458e-19)
(0.27197991 -5.8057484e-05 1.6508198e-18)
(0.27196007 -0.00014287123 2.6152497e-18)
(0.27186829 -0.00021894817 4.9217946e-19)
(0.2715565 -0.00029030334 5.9432336e-19)
(0.27066608 -0.00034728975 2.6985403e-19)
(0.26833154 -0.00038068283 4.3498385e-20)
(0.2623985 -0.00036437286 -2.2645882e-19)
(0.2490264 -0.00026852517 -1.4995e-19)
(0.22536099 -0.00016272763 -6.0139309e-20)
(0.18616824 -2.8774245e-05 -2.7217863e-19)
(0.27455816 -5.5861808e-05 -1.9180585e-19)
(0.27452281 -0.00013703203 1.7297122e-18)
(0.27437848 -0.00020952006 5.7723496e-19)
(0.27392442 -0.00027640494 5.7205256e-19)
(0.27267857 -0.00032682085 1.8038485e-19)
(0.26947687 -0.00034738429 4.1852157e-19)
(0.26178468 -0.00031092677 1.1200171e-20)
(0.2465738 -0.00020816863 -1.0799687e-19)
(0.22271518 -0.00011050091 -2.3804381e-19)
(0.18425836 -2.0836348e-05 -2.7070871e-19)
(0.27704027 -5.408572e-05 1.1702483e-18)
(0.27698407 -0.00013225435 2.2620927e-19)
(0.27677058 -0.00020162573 8.4682379e-19)
(0.27613171 -0.00026417289 3.1831248e-19)
(0.27442313 -0.00030720584 3.1048144e-19)
(0.27014173 -0.00031294774 3.2064585e-19)
(0.26068999 -0.00025925793 -2.7889627e-20)
(0.24429832 -0.00015836454 -1.3593802e-19)
(0.22067581 -7.5408579e-05 -6.9398052e-20)
(0.18296198 -1.5153437e-05 -6.8557581e-20)
(0.2794434 -5.2555752e-05 3.5320541e-18)
(0.27935955 -0.00012814135 2.076192e-18)
(0.27905543 -0.00019460752 6.2821042e-19)
(0.27817575 -0.00025259237 5.3884312e-19)
(0.27586797 -0.00028673452 1.8849969e-19)
(0.27032644 -0.00027659214 -1.0988624e-19)
(0.25933501 -0.00021094049 -2.0200506e-19)
(0.24234214 -0.00011891242 -1.0159927e-19)
(0.21912382 -5.2172171e-05 -5.5805292e-20)
(0.18206599 -1.0945963e-05 -1.6229137e-19)
(0.28177654 -5.1166654e-05 2.2732981e-18)
(0.28165619 -0.00012441971 7.4927488e-19)
(0.2812333 -0.00018797297 2.1519047e-19)
(0.28003901 -0.00024077452 1.0945774e-18)
(0.27697398 -0.0002641764 3.0061889e-20)
(0.27008763 -0.0002388041 -4.0715394e-20)
(0.25792268 -0.00016762335 -1.0784056e-20)
(0.24073179 -8.8481517e-05 -9.3254588e-21)
(0.21795021 -3.6445935e-05 -1.3788793e-19)
(0.18143936 -7.6995078e-06 -1.788757e-19)
(0.28404476 -4.9854752e-05 8.2979639e-19)
(0.28387625 -0.0001208942 6.3825963e-19)
(0.28329739 -0.00018132907 -1.0702113e-19)
(0.28169344 -0.00022787705 8.4717973e-19)
(0.27771472 -0.00023897377 2.3930546e-19)
(0.2695351 -0.00020087549 6.9829008e-20)
(0.25659138 -0.00013036512 -3.1546068e-20)
(0.2394378 -6.5171307e-05 -4.3238494e-20)
(0.21706901 -2.5325443e-05 -1.724793e-19)
(0.18100323 -5.122071e-06 -1.3669906e-19)
(0.28625048 -4.8572079e-05 -5.2346616e-20)
(0.28601827 -0.00011740091 4.6998348e-19)
(0.28523426 -0.00017430189 -1.3969291e-20)
(0.28310493 -0.00021314188 5.50982e-19)
(0.27809438 -0.00021129059 3.7794147e-19)
(0.26879942 -0.00016439817 1.575738e-20)
(0.25541093 -9.9329327e-05 -1.0929027e-19)
(0.238414 -4.7155589e-05 -1.671804e-19)
(0.21641538 -1.7078762e-05 -2.1164245e-19)
(0.18070892 -3.0434548e-06 -1.3204307e-19)
(0.28839355 -4.7270964e-05 1.6063006e-18)
(0.28807682 -0.00011377576 5.0382161e-19)
(0.28702341 -0.00016645982 1.4968745e-19)
(0.28424077 -0.00019602597 2.6730195e-19)
(0.27815549 -0.00018188534 2.2358023e-19)
(0.267996 -0.00013078975 -1.5694474e-19)
(0.25440307 -7.3937038e-05 -2.7622248e-19)
(0.23761477 -3.3003631e-05 -2.4623795e-19)
(0.21594074 -1.0715753e-05 -2.2164606e-19)
(0.18052449 -1.3525912e-06 -2.5326104e-19)
(0.29047097 -4.5891455e-05 1.9423597e-18)
(0.29004195 -0.00010982911 2.6170031e-18)
(0.28863778 -0.00015729304 3.6408145e-19)
(0.28508023 -0.00017633848 -2.9006468e-19)
(0.27797082 -0.00015188716 3.2244753e-19)
(0.26720626 -0.00010094671 6.880609e-20)
(0.25356402 -5.3258661e-05 -6.2226392e-20)
(0.23700054 -2.1698416e-05 -1.0028921e-19)
(0.21560861 -5.6593654e-06 -1.2860622e-19)
(0.18042759 3.4142608e-08 -6.3301669e-20)
(0.29247637 -4.4351552e-05 6.3349144e-19)
(0.29189831 -0.00010531341 1.0458699e-19)
(0.2900463 -0.00014628205 8.3187794e-19)
(0.2856247 -0.00015430652 9.8506177e-19)
(0.27762408 -0.0001225395 2.8919364e-19)
(0.26647733 -7.5148018e-05 4.1877647e-19)
(0.25287923 -3.6357936e-05 1.5561294e-19)
(0.23653862 -1.2544502e-05 -1.3302769e-20)
(0.21539111 -1.5276802e-06 -2.8785128e-20)
(0.18040204 1.2057379e-06 1.5370536e-19)
(0.294399 -4.2542675e-05 5.5851394e-19)
(0.2936244 -9.989464e-05 6.6720282e-19)
(0.29121909 -0.00013303046 6.5350645e-19)
(0.28590172 -0.00013054556 6.2715426e-19)
(0.27719085 -9.4944345e-05 8.0303979e-20)
(0.26583134 -5.3198575e-05 1.8762123e-20)
(0.25233097 -2.2453027e-05 7.7061229e-20)
(0.23620235 -5.0206232e-06 -2.6199176e-20)
(0.2152645 1.897283e-06 -4.3239566e-20)
(0.18043773 2.1934777e-06 -1.2596971e-19)
(0.29622248 -4.0322303e-05 1.2414166e-18)
(0.29519258 -9.3155492e-05 8.5937416e-19)
(0.29213503 -0.00011739332 8.7282225e-20)
(0.28595988 -0.00010594391 3.9483752e-19)
(0.27672821 -6.9857711e-05 1.9310153e-19)
(0.26527516 -3.4649774e-05 -3.3763618e-20)
(0.2519011 -1.0911144e-05 2.5261229e-19)
(0.23596807 1.2315663e-06 1.490302e-19)
(0.21521691 4.7057278e-06 6.0474387e-20)
(0.18052214 2.9884492e-06 -3.5410094e-20)
(0.29792335 -3.7501358e-05 1.3138536e-18)
(0.29657068 -8.4660605e-05 5.1248381e-19)
(0.29278918 -9.9552544e-05 4.0553879e-19)
(0.28585701 -8.1496674e-05 5.5634816e-19)
(0.27627357 -4.7619875e-05 6.3566202e-19)
(0.26480714 -1.8984304e-05 2.0494862e-19)
(0.25157194 -1.2541336e-06 -1.321702e-19)
(0.23582161 6.4204661e-06 -4.4191673e-20)
(0.21523437 6.9890164e-06 -6.7022419e-20)
(0.18064612 3.6202708e-06 -1.1415217e-19)
(0.29946983 -3.3841688e-05 -8.0209144e-19)
(0.29772604 -7.4080422e-05 1.1100298e-18)
(0.29319629 -8.0020059e-05 -1.3931874e-19)
(0.28564804 -5.8126264e-05 -1.4401194e-18)
(0.27584861 -2.8225545e-05 3.0423034e-19)
(0.2644212 -5.6904833e-06 -4.6699165e-19)
(0.25132937 6.8561617e-06 -3.2260964e-19)
(0.23575038 1.0704858e-05 -2.5945367e-19)
(0.21530524 8.8450716e-06 -4.3211714e-20)
(0.18080244 4.1235438e-06 -2.4582745e-20)
(0.30082185 -2.9094922e-05 7.5861243e-19)
(0.29863176 -6.1332345e-05 1.8471393e-18)
(0.29338823 -5.9567324e-05 -1.5849868e-19)
(0.28537719 -3.6522741e-05 -3.2103645e-19)
(0.27546384 -1.1417321e-05 -2.5202763e-19)
(0.26410765 5.616323e-06 -2.4601047e-19)
(0.2511654 1.3623236e-05 -3.1992448e-19)
(0.23574181 1.4219635e-05 -5.8528145e-20)
(0.21542011 1.0354918e-05 2.8283629e-20)
(0.18098519 4.526406e-06 1.6201502e-19)
(0.30193375 -2.3108761e-05 2.9064925e-18)
(0.29927339 -4.6684788e-05 2.0960464e-18)
(0.29340604 -3.9091765e-05 2.3033293e-19)
(0.28507547 -1.7047811e-05 1.2274067e-18)
(0.27512088 3.0835428e-06 8.3114228e-19)
(0.26386445 1.513998e-05 8.9722844e-19)
(0.25106782 1.9209596e-05 1.5045401e-19)
(0.2357854 1.7094579e-05 7.2807742e-20)
(0.2155712 1.1580817e-05 8.7802093e-21)
(0.18118947 4.8478288e-06 2.0889692e-20)
(0.30276112 -1.5976931e-05 -1.8406783e-18)
(0.29965289 -3.077322e-05 -7.770849e-19)
(0.29329056 -1.9436413e-05 -7.3814714e-19)
(0.28476121 1.6751331e-07 -7.980693e-19)
(0.27482456 1.5440414e-05 -1.5572579e-20)
(0.26368339 2.3071223e-05 1.4413365e-19)
(0.25102649 2.3802141e-05 4.464202e-19)
(0.2358724 1.9434177e-05 1.2089746e-19)
(0.21575199 1.256491e-05 6.8585624e-20)
(0.18141107 5.0990494e-06 1.2788532e-19)
(0.30327135 -8.1279004e-06 3.2340258e-20)
(0.29978735 -1.4486243e-05 7.3955509e-19)
(0.29307478 -1.3056929e-06 -4.7223545e-19)
(0.28444918 1.5039156e-05 -9.4489999e-19)
(0.27457433 2.5803657e-05 -1.3532943e-18)
(0.26355615 2.9613341e-05 -7.3935476e-19)
(0.25103262 2.7544416e-05 -2.2816988e-19)
(0.23599543 2.1311125e-05 2.6935211e-20)
(0.21595697 1.3335878e-05 6.592751e-20)
(0.1816463 5.2873325e-06 1.0177026e-19)
(0.30345398 -2.4242548e-07 -1.0100895e-18)
(0.29970264 1.1326907e-06 2.2844339e-19)
(0.29278638 1.4661969e-05 -5.2772072e-19)
(0.28414893 2.752533e-05 -1.0857059e-18)
(0.2743656 3.4336271e-05 -6.0301833e-19)
(0.26347496 3.4929453e-05 -4.5965621e-19)
(0.25107851 3.0535658e-05 -2.3388414e-19)
(0.23614811 2.277377e-05 -8.9860539e-20)
(0.21618129 1.3912282e-05 4.6761682e-20)
(0.18189181 5.4169377e-06 7.6022931e-20)
(0.30332514 6.8808445e-06 -4.6034376e-18)
(0.29943296 1.49846e-05 -2.5871365e-18)
(0.29244689 2.7993617e-05 -1.7590166e-18)
(0.28386232 3.7676228e-05 -1.8024345e-18)
(0.27419303 4.1186651e-05 -8.2895133e-19)
(0.26343257 3.9127413e-05 -6.0037315e-19)
(0.2511573 3.2835568e-05 -1.5432852e-19)
(0.23632475 2.3848665e-05 -6.1262038e-20)
(0.21642057 1.4302388e-05 -6.3643504e-20)
(0.18214445 5.4887408e-06 1.1309099e-19)
(0.30293053 1.2606827e-05 2.151449e-18)
(0.29901533 2.625266e-05 -2.7648398e-19)
(0.29206924 3.8507715e-05 -1.2701214e-18)
(0.28358877 4.558955e-05 1.5311127e-19)
(0.27405096 4.645176e-05 6.9523386e-19)
(0.26342221 4.2266714e-05 3.7013435e-19)
(0.25126272 3.4472086e-05 3.6687626e-20)
(0.23652015 2.4543568e-05 6.6846074e-20)
(0.21667064 1.4504838e-05 2.3200153e-20)
(0.18240107 5.5002944e-06 -4.3346807e-20)
(0.30233166 1.6686147e-05 7.3327415e-19)
(0.29848534 3.4600876e-05 2.1203392e-19)
(0.29166295 4.6231567e-05 -4.0260297e-19)
(0.28332653 5.1360475e-05 -4.5421027e-19)
(0.27393383 5.0195383e-05 5.0904157e-19)
(0.26343755 4.4378754e-05 3.5233709e-19)
(0.25138895 3.5453041e-05 1.9420448e-19)
(0.23672934 2.4853695e-05 6.0297107e-20)
(0.21692738 1.4511804e-05 8.4698647e-20)
(0.18265836 5.4469557e-06 1.5125821e-20)
(0.30159325 1.918212e-05 2.1202777e-18)
(0.2978766 4.0084555e-05 1.6314141e-18)
(0.29123637 5.1327603e-05 -6.4754583e-20)
(0.28307385 5.5103586e-05 -1.2790663e-19)
(0.27383649 5.247871e-05 -8.8722174e-19)
(0.26347282 4.5487624e-05 -4.4834765e-19)
(0.25153053 3.5779798e-05 -3.4719987e-19)
(0.23694749 2.4770517e-05 -1.5566816e-19)
(0.21718658 1.431397e-05 -2.2424329e-20)
(0.18291285 5.3238059e-06 4.3681901e-20)
(0.30077406 2.0344007e-05 2.1837314e-18)
(0.29721994 4.3030052e-05 1.500181e-18)
(0.29079789 5.4063795e-05 6.3271695e-20)
(0.28282962 5.6975631e-05 1.021718e-19)
(0.27375459 5.3383328e-05 -6.2853689e-19)
(0.26352281 4.5628384e-05 -6.1582198e-19)
(0.25168237 3.5461065e-05 -2.8513056e-19)
(0.23716992 2.4291163e-05 -2.0655481e-19)
(0.21744401 1.3905916e-05 -6.5099161e-20)
(0.18316089 5.1276921e-06 -4.1299484e-20)
(0.29992221 2.0483819e-05 -3.8000513e-18)
(0.2965426 4.3899136e-05 -1.5959745e-18)
(0.29035624 5.4780942e-05 -2.5133068e-19)
(0.28259383 5.7182179e-05 -1.7424926e-18)
(0.27368474 5.3024665e-05 -9.3440558e-19)
(0.26358306 4.4860727e-05 -5.3700329e-19)
(0.25183983 3.4524276e-05 1.2141204e-19)
(0.23739212 2.3426523e-05 6.858893e-20)
(0.21769545 1.3290988e-05 -7.6371175e-20)
(0.1833988 4.8591593e-06 3.851494e-20)
(0.29907422 1.9896645e-05 2.3656706e-18)
(0.29586745 4.3179192e-05 7.0544879e-19)
(0.28992019 5.3854898e-05 4.5618967e-19)
(0.28236749 5.5969179e-05 1.1666048e-18)
(0.27362454 5.1554259e-05 1.2606505e-18)
(0.26364988 4.3274755e-05 1.0518549e-18)
(0.25199879 3.3021456e-05 3.4205788e-19)
(0.23760992 2.2205709e-05 2.9420607e-19)
(0.2179369 1.2484e-05 1.4007397e-19)
(0.18362307 4.5234432e-06 5.362425e-20)
(0.29825614 1.8825932e-05 1.951261e-18)
(0.29521262 4.1315835e-05 -1.6821644e-19)
(0.28949796 5.1660927e-05 4.4313593e-19)
(0.28215234 5.360537e-05 9.93188e-19)
(0.27357254 4.9152606e-05 7.2529189e-19)
(0.26372034 4.0988835e-05 4.1909858e-19)
(0.25215571 3.1029004e-05 1.4108392e-19)
(0.2378196 2.0676273e-05 4.0805763e-20)
(0.21816474 1.1511404e-05 1.8241072e-19)
(0.18383056 4.1304461e-06 7.3919994e-20)
(0.29748543 1.7457585e-05 1.5169688e-18)
(0.29459166 3.868282e-05 2.2611163e-18)
(0.28909668 4.8546488e-05 6.047005e-19)
(0.28195052 5.0362209e-05 -3.7368173e-19)
(0.27352798 4.6016427e-05 -9.6110309e-19)
(0.26379222 3.8141607e-05 -6.2131237e-19)
(0.25230768 2.8642481e-05 -4.8897539e-19)
(0.23801801 1.8900742e-05 -3.047509e-19)
(0.21837593 1.0409196e-05 -1.9685656e-19)
(0.18401878 3.6938278e-06 -4.5732664e-20)
(0.29677293 1.592715e-05 9.0383451e-19)
(0.29401396 3.5576314e-05 2.0811235e-18)
(0.28872209 4.4814799e-05 3.2091687e-19)
(0.28176412 4.649639e-05 -1.3657e-19)
(0.27349054 4.234446e-05 -1.3684111e-19)
(0.26386388 3.4881094e-05 -3.3480399e-19)
(0.2524524 2.5968442e-05 -2.3813334e-19)
(0.23820264 1.6950792e-05 -1.7773464e-19)
(0.21856816 9.2192893e-06 -2.4025796e-19)
(0.18418593 3.2295105e-06 -1.4848084e-19)
(0.29612451 1.4330652e-05 -4.5491587e-18)
(0.29348542 3.2221856e-05 -1.9106722e-18)
(0.28837836 4.071821e-05 -1.09271e-18)
(0.28159492 4.2237629e-05 -1.5362671e-18)
(0.27346018 3.8325067e-05 -4.7747975e-19)
(0.26393414 3.1353883e-05 -6.1277245e-19)
(0.25258815 2.3115671e-05 1.0101687e-19)
(0.23837164 1.4900799e-05 -3.419202e-20)
(0.21873984 7.9854702e-06 2.9465046e-20)
(0.18433106 2.7540895e-06 2.8800908e-20)
(0.2955425 1.2734677e-05 2.8271062e-18)
(0.29300908 2.8785994e-05 4.0018112e-20)
(0.2880681 3.6458569e-05 1.6306407e-19)
(0.28144416 3.7782005e-05 8.8331315e-19)
(0.27343687 3.4127228e-05 1.3121087e-18)
(0.26400216 2.7696181e-05 4.9332044e-19)
(0.25271369 2.0187438e-05 1.2236161e-19)
(0.23852381 1.282194e-05 1.263894e-19)
(0.21889016 6.7496494e-06 1.8848459e-19)
(0.18445395 2.283384e-06 4.9400051e-20)
(0.29502664 1.1184395e-05 2.990476e-18)
(0.29258578 2.5388334e-05 5.1695064e-19)
(0.28779259 3.2191644e-05 4.059875e-19)
(0.28131254 3.3289888e-05 5.8831706e-19)
(0.27342053 2.9895205e-05 4.1197357e-19)
(0.26406734 2.4027535e-05 4.3116618e-19)
(0.25282826 1.7275626e-05 7.6144464e-20)
(0.23865856 1.0777572e-05 1.8173634e-19)
(0.21901903 5.5488349e-06 8.6487057e-20)
(0.18455513 1.8312078e-06 -3.4635272e-21)
(0.29457493 9.7096227e-06 4.262062e-19)
(0.29221473 2.2112336e-05 3.1398257e-18)
(0.2875519 2.8033586e-05 4.3602475e-19)
(0.28120014 2.8887317e-05 3.4640972e-19)
(0.27341091 2.5746638e-05 -1.1576007e-18)
(0.26412921 2.0447522e-05 -2.4916705e-19)
(0.25293145 1.4457269e-05 -3.3196197e-19)
(0.23877583 8.8204299e-06 -1.9254047e-19)
(0.21912696 4.4133536e-06 -1.393427e-19)
(0.1846357 1.408702e-06 -9.2930171e-21)
(0.29418418 8.3290977e-06 3.8479665e-18)
(0.29189392 1.9013964e-05 3.8133403e-18)
(0.28734518 2.406759e-05 2.677284e-18)
(0.28110652 2.4669107e-05 3.2769597e-18)
(0.27340762 2.1772864e-05 2.1308647e-18)
(0.26418744 1.7034554e-05 1.1241266e-18)
(0.25302315 1.1792893e-05 3.6192415e-19)
(0.23887599 6.9911791e-06 2.5853066e-20)
(0.21921495 3.3658493e-06 -1.6202158e-20)
(0.1846972 1.0238577e-06 -3.7468296e-20)
(0.29385043 7.0536937e-06 3.2580438e-18)
(0.29162052 1.6128714e-05 1.6512662e-18)
(0.28717087 2.0350408e-05 4.9456837e-18)
(0.2810308 2.0703174e-05 3.1274385e-18)
(0.27341011 1.8041124e-05 2.6263472e-18)
(0.26424177 1.3846764e-05 2.114005e-18)
(0.25310353 9.3267958e-06 1.5488432e-18)
(0.23895978 5.3185856e-06 7.6133526e-19)
(0.21928439 2.4215194e-06 5.4361953e-19)
(0.18474148 6.817074e-07 1.5801692e-19)
(0.29356927 5.8886177e-06 2.3216936e-18)
(0.29139116 1.3476867e-05 1.4682478e-18)
(0.28702688 1.6917907e-05 3.3730222e-18)
(0.28097177 1.7034902e-05 2.8572987e-18)
(0.27341772 1.4597465e-05 2.7324627e-18)
(0.26429199 1.0923837e-05 2.2471337e-18)
(0.25317294 7.0882932e-06 1.7196355e-18)
(0.23902821 3.8204613e-06 1.1482233e-18)
(0.21933694 1.5887782e-06 6.6849976e-19)
(0.18477056 3.8461941e-07 3.3144138e-19)
(0.29333609 4.8350872e-06 1.3901704e-18)
(0.29120216 1.1067634e-05 3.3171868e-18)
(0.28691079 1.3789959e-05 3.9814612e-18)
(0.28092797 1.369159e-05 4.676865e-18)
(0.27342968 1.1470302e-05 3.9697528e-18)
(0.26433798 8.2898247e-06 2.0091647e-18)
(0.2532319 5.0940042e-06 1.5453714e-18)
(0.23908249 2.5055304e-06 1.1575427e-18)
(0.21937441 8.7066448e-07 7.7426585e-19)
(0.18478653 1.329731e-07 5.6271995e-19)
(0.29314622 3.8915268e-06 1.865142e-18)
(0.2910497 8.902225e-06 2.7374764e-18)
(0.28681998 1.0974309e-05 2.9408822e-18)
(0.28089781 1.0686224e-05 3.5987893e-18)
(0.27344521 8.6736565e-06 2.7098566e-18)
(0.26437966 5.9557488e-06 2.0203841e-18)
(0.25328103 3.3497435e-06 1.5279381e-18)
(0.23912394 1.3745531e-06 1.1138553e-18)
(0.21939867 2.7104783e-07 8.517728e-19)
(0.18479144 -7.0312873e-08 6.2330732e-19)
(0.29299504 3.0541969e-06 5.824225e-19)
(0.29092993 6.975653e-06 1.4363346e-18)
(0.28675172 8.468971e-06 1.6885893e-19)
(0.2808796 8.0198303e-06 1.5795754e-18)
(0.27346349 6.2090433e-06 2.430891e-18)
(0.264417 3.9210777e-06 2.1780141e-18)
(0.25332108 1.8525173e-06 1.5432446e-18)
(0.23915392 4.2745873e-07 1.2807462e-18)
(0.21941124 -2.1485976e-07 8.0890211e-19)
(0.18478768 -2.2918911e-07 5.9785878e-19)
(0.2928781 2.3179911e-06 4.7444256e-19)
(0.29083907 5.2787443e-06 2.5815825e-18)
(0.28670332 6.265072e-06 2.8268239e-18)
(0.28087167 5.6847362e-06 1.4262471e-18)
(0.27348375 4.0689687e-06 1.6920948e-18)
(0.26445004 2.1780053e-06 1.9406261e-18)
(0.25335274 5.9798691e-07 1.6123839e-18)
(0.23917355 -3.4445888e-07 1.5119658e-18)
(0.2194146 -6.0513275e-07 1.2214933e-18)
(0.18477677 -3.5454909e-07 7.3703565e-19)
(0.29279117 1.6769687e-06 1.8138353e-18)
(0.2907735 3.7996736e-06 8.0495941e-19)
(0.28667213 4.3492246e-06 1.3085359e-18)
(0.28087239 3.667622e-06 1.1575483e-18)
(0.27350526 2.2409771e-06 1.4464826e-18)
(0.26447879 7.1761639e-07 1.8587984e-18)
(0.25337659 -4.2805283e-07 1.7921571e-18)
(0.23918482 -9.6413455e-07 1.5482968e-18)
(0.21941032 -9.1349964e-07 1.299883e-18)
(0.1847602 -4.51142e-07 8.1241693e-19)
(0.29273027 1.1247013e-06 3.6282094e-19)
(0.29072979 2.5248908e-06 1.4701305e-18)
(0.28665563 2.7050633e-06 2.1445326e-18)
(0.28088017 1.952109e-06 3.5866348e-18)
(0.27352728 7.1179323e-07 2.9022436e-18)
(0.2645032 -4.789559e-07 1.8630159e-18)
(0.253394 -1.2536006e-06 1.6572425e-18)
(0.23918901 -1.4511538e-06 1.5044555e-18)
(0.21939987 -1.1468389e-06 1.425969e-18)
(0.18473936 -5.2087213e-07 1.1310149e-18)
(0.29269167 6.5457832e-07 6.0281522e-19)
(0.29070471 1.4402029e-06 2.2788083e-18)
(0.28665143 1.3159334e-06 3.177674e-18)
(0.28089351 5.2221692e-07 2.8445353e-18)
(0.27354906 -5.4122251e-07 2.6121127e-18)
(0.26452391 -1.4433734e-06 2.0125706e-18)
(0.25340577 -1.90325e-06 1.6699797e-18)
(0.23918729 -1.8187943e-06 1.346798e-18)
(0.21938459 -1.3123694e-06 1.2653529e-18)
(0.18471551 -5.6647115e-07 1.1491998e-18)
(0.29267194 2.6039158e-07 2.9389905e-18)
(0.29069525 5.3238766e-07 1.8049585e-18)
(0.28665725 1.6426086e-07 8.3629478e-19)
(0.28091096 -6.4792499e-07 8.7941158e-19)
(0.27357052 -1.5520623e-06 2.1009128e-18)
(0.26454118 -2.2037454e-06 1.8926689e-18)
(0.25341264 -2.3953139e-06 1.8304503e-18)
(0.23918073 -2.0802389e-06 1.3586736e-18)
(0.2193657 -1.4187224e-06 1.0254219e-18)
(0.18468974 -5.9137028e-07 9.4661423e-19)
(0.29266788 -6.4395396e-08 1.2446495e-18)
(0.29069862 -2.1453107e-07 2.0939948e-18)
(0.2866711 -7.7531929e-07 2.947826e-18)
(0.28093165 -1.5913953e-06 1.3485924e-18)
(0.27359126 -2.3496487e-06 9.8585951e-19)
(0.26455524 -2.7815479e-06 1.8053441e-18)
(0.25341532 -2.7475882e-06 1.8035957e-18)
(0.23917035 -2.2493403e-06 1.7481198e-18)
(0.21934425 -1.4747226e-06 1.4203295e-18)
(0.18466298 -5.9893841e-07 1.0433235e-18)
(0.29267664 -3.2780964e-07 3.234245e-19)
(0.2907124 -8.198287e-07 1.1949753e-18)
(0.28669132 -1.5293814e-06 2.3839069e-18)
(0.28095457 -2.3337641e-06 1.1993987e-18)
(0.27361096 -2.9562823e-06 1.3081706e-18)
(0.26456634 -3.1975493e-06 1.8711847e-18)
(0.25341449 -2.9781728e-06 1.9691134e-18)
(0.23915703 -2.3396606e-06 1.906921e-18)
(0.21932116 -1.4886533e-06 1.6589082e-18)
(0.18463599 -5.9219916e-07 1.2108398e-18)
(0.29269573 -5.3724829e-07 1.8145636e-18)
(0.29073445 -1.2999406e-06 2.4056976e-18)
(0.28671637 -2.1180389e-06 1.6418403e-18)
(0.28097884 -2.8964741e-06 1.9459912e-18)
(0.27362941 -3.393848e-06 1.4076136e-18)
(0.26457477 -3.4724383e-06 1.8253206e-18)
(0.25341078 -3.1045297e-06 1.8792245e-18)
(0.23914159 -2.3638859e-06 1.7174503e-18)
(0.21929722 -1.4681012e-06 1.6530697e-18)
(0.18460938 -5.7387775e-07 1.3256027e-18)
(0.2927229 -6.9855827e-07 1.4856799e-18)
(0.29076286 -1.6684365e-06 1.3729835e-18)
(0.28674489 -2.5594365e-06 9.2114918e-19)
(0.28100373 -3.3003056e-06 1.3120108e-18)
(0.27364641 -3.683668e-06 3.9442157e-19)
(0.26458081 -3.6259312e-06 1.4297002e-18)
(0.25340478 -3.1429333e-06 1.5370489e-18)
(0.23912472 -2.3336085e-06 1.583686e-18)
(0.21927309 -1.4198582e-06 1.5068822e-18)
(0.18458364 -5.4639529e-07 1.2399647e-18)
(0.29275618 -8.1732161e-07 1.1259153e-18)
(0.29079594 -1.9382196e-06 2.3430628e-18)
(0.28677568 -2.87111e-06 3.1911311e-18)
(0.2810286 -3.5654107e-06 2.202858e-18)
(0.27366186 -3.8461973e-06 1.9370559e-18)
(0.26458474 -3.6766719e-06 6.2120236e-19)
(0.253397 -3.1085505e-06 1.0698313e-18)
(0.23910702 -2.259497e-06 1.3520801e-18)
(0.2192493 -1.3501352e-06 1.2041119e-18)
(0.18455916 -5.1205224e-07 1.045082e-18)
(0.29279383 -8.9882305e-07 2.9932395e-18)
(0.29083219 -2.1215854e-06 4.6531205e-18)
(0.28680771 -3.069872e-06 5.7621279e-18)
(0.28105293 -3.7110532e-06 2.9974861e-18)
(0.2736757 -3.900806e-06 2.1463562e-18)
(0.26458685 -3.6420981e-06 1.872417e-18)
(0.25338791 -3.0153761e-06 1.3740162e-18)
(0.23908903 -2.1512608e-06 1.3655396e-18)
(0.2192263 -1.2645139e-06 1.4430887e-18)
(0.18453622 -4.7297122e-07 1.1400334e-18)
(0.29283432 -9.4808587e-07 2.1656737e-18)
(0.29087032 -2.2302557e-06 1.8466079e-18)
(0.28684011 -3.1717669e-06 6.3173064e-19)
(0.28107631 -3.7555295e-06 2.2277481e-18)
(0.27368791 -3.8657224e-06 2.3831039e-18)
(0.26458739 -3.5384175e-06 2.6320532e-18)
(0.25337794 -2.876229e-06 1.9060845e-18)
(0.23907115 -2.0176586e-06 1.5449335e-18)
(0.21920444 -1.1679587e-06 1.4624462e-18)
(0.18451504 -4.3106092e-07 1.2676824e-18)
(0.29287633 -9.698727e-07 1.0035456e-18)
(0.29090923 -2.2753524e-06 1.0322125e-18)
(0.28687213 -3.1919914e-06 1.4456328e-18)
(0.28109842 -3.7160592e-06 2.714495e-18)
(0.27369852 -3.7579274e-06 2.3024354e-18)
(0.26458663 -3.3805299e-06 2.3467753e-18)
(0.25336745 -2.7027059e-06 2.0589946e-18)
(0.23905376 -1.866468e-06 1.6698425e-18)
(0.21918396 -1.0647973e-06 1.4111448e-18)
(0.18449574 -3.8796169e-07 1.2331374e-18)
(0.29291878 -9.6860072e-07 2.1847722e-18)
(0.29094801 -2.2672349e-06 2.1080261e-18)
(0.28690321 -3.1446747e-06 2.1583774e-18)
(0.28111901 -3.6085282e-06 2.0449424e-18)
(0.27370759 -3.5928885e-06 1.2344679e-18)
(0.26458481 -3.1817768e-06 1.6481186e-18)
(0.25335673 -2.5049736e-06 1.9348542e-18)
(0.23903711 -1.7043249e-06 1.8746165e-18)
(0.21916504 -9.5857844e-07 1.5357517e-18)
(0.18447839 -3.4491015e-07 1.2135669e-18)
(0.29296074 -9.4837219e-07 1.0544865e-18)
(0.2909859 -2.2154997e-06 1.9177275e-18)
(0.28693287 -3.042828e-06 2.8387111e-18)
(0.28113794 -3.4474128e-06 1.6923842e-18)
(0.2737152 -3.3844981e-06 2.5788613e-18)
(0.26458216 -2.9539278e-06 8.908268e-19)
(0.25334606 -2.2918048e-06 1.4634525e-18)
(0.23902142 -1.5368012e-06 1.6930506e-18)
(0.21914778 -8.5219234e-07 1.3840908e-18)
(0.18446298 -3.0283773e-07 1.2337126e-18)
(0.29300146 -9.128871e-07 3.7068079e-19)
(0.2910223 -2.1288237e-06 2.4338065e-18)
(0.28696076 -2.8981456e-06 4.2321405e-18)
(0.28115512 -3.245569e-06 1.9748556e-18)
(0.27372145 -3.1448827e-06 2.1693262e-18)
(0.26457887 -2.7070288e-06 2.0049756e-18)
(0.25333564 -2.0704828e-06 1.6937971e-18)
(0.23900683 -1.36836e-06 1.7113603e-18)
(0.21913224 -7.4783262e-07 1.7724738e-18)
(0.18444948 -2.6234975e-07 1.3976262e-18)
(0.29304036 -8.6546589e-07 6.4368694e-19)
(0.29105676 -2.0149722e-06 1.7338192e-18)
(0.28698665 -2.7210001e-06 -4.3847683e-19)
(0.28117051 -3.0142391e-06 1.9127326e-18)
(0.27372647 -2.8844461e-06 1.7988227e-18)
(0.26457514 -2.4494981e-06 2.5919427e-18)
(0.25332564 -1.8469367e-06 2.0812585e-18)
(0.23899345 -1.2025089e-06 1.7836475e-18)
(0.21911841 -6.4714294e-07 1.6712833e-18)
(0.1844378 -2.2384443e-07 1.3921695e-18)
(0.29307697 -8.0907356e-07 1.1650256e-18)
(0.29108891 -1.8808407e-06 1.2085033e-18)
(0.28701037 -2.5204963e-06 2.5449091e-19)
(0.28118412 -2.7631434e-06 1.427258e-18)
(0.27373037 -2.6120146e-06 1.4211641e-18)
(0.26457112 -2.1883146e-06 2.3406275e-18)
(0.2533162 -1.6259531e-06 1.9787658e-18)
(0.23898132 -1.0419984e-06 1.5988704e-18)
(0.21910628 -5.5138218e-07 1.4361606e-18)
(0.18442784 -1.8763848e-07 1.2408161e-18)
(0.29311098 -7.4630046e-07 8.4781748e-19)
(0.29111854 -1.732449e-06 9.5015102e-19)
(0.28703181 -2.304503e-06 1.5795895e-18)
(0.28119599 -2.500553e-06 8.7873857e-19)
(0.27373328 -2.3349411e-06 3.0419127e-19)
(0.26456695 -1.9291403e-06 1.2560134e-18)
(0.25330741 -1.4112915e-06 1.5749429e-18)
(0.23897048 -8.8890246e-07 1.6034829e-18)
(0.21909577 -4.6143895e-07 1.540332e-18)
(0.18441951 -1.5394768e-07 1.1851807e-18)
(0.29314214 -6.7945418e-07 1.1934827e-18)
(0.29114547 -1.5751049e-06 2.8078358e-18)
(0.28705096 -2.0798636e-06 3.3096773e-18)
(0.28120619 -2.2335541e-06 1.6311202e-18)
(0.27373532 -2.0594164e-06 1.9320659e-18)
(0.26456274 -1.6766481e-06 6.0733908e-19)
(0.25329933 -1.2059887e-06 1.2251984e-18)
(0.23896092 -7.4486856e-07 1.4345951e-18)
(0.21908682 -3.7802807e-07 1.3940712e-18)
(0.18441267 -1.2299832e-07 1.1989012e-18)
(0.29317034 -6.1053705e-07 1.7334267e-18)
(0.29116965 -1.4134072e-06 3.1073362e-18)
(0.28706782 -1.8524491e-06 3.8121542e-18)
(0.28121481 -1.9681341e-06 2.8154455e-18)
(0.27373658 -1.7905705e-06 2.1325334e-18)
(0.26455858 -1.4346187e-06 1.9604061e-18)
(0.253292 -1.0124259e-06 1.6310786e-18)
(0.2389526 -6.1113369e-07 1.5170403e-18)
(0.21907933 -3.0165451e-07 1.5698754e-18)
(0.18440721 -9.496544e-08 1.3503154e-18)
(0.2931955 -5.4128182e-07 5.2403088e-19)
(0.29119105 -1.2513248e-06 3.1306957e-19)
(0.28708245 -1.6272699e-06 -4.8224362e-19)
(0.28122194 -1.7093252e-06 2.0452568e-18)
(0.2737372 -1.5326279e-06 2.2241827e-18)
(0.26455455 -1.2060808e-06 2.4009853e-18)
(0.25328544 -8.324407e-07 1.9716541e-18)
(0.23894547 -4.8859858e-07 1.9033114e-18)
(0.2190732 -2.3264533e-07 1.6269945e-18)
(0.18440299 -6.9957038e-08 1.367138e-18)
(0.29321766 -4.7317649e-07 2.6892308e-19)
(0.29120973 -1.0922449e-06 1.0540786e-18)
(0.28709494 -1.4085494e-06 1.6301708e-18)
(0.2812277 -1.4612929e-06 1.7517799e-18)
(0.27373726 -1.2890027e-06 2.7389492e-18)
(0.26455071 -9.9340378e-07 2.3963186e-18)
(0.25327965 -6.6739814e-07 2.0182632e-18)
(0.23893947 -3.7787331e-07 1.9068081e-18)
(0.21906831 -1.7119389e-07 1.6897323e-18)
(0.18439989 -4.8038469e-08 1.3586196e-18)
(0.29323689 -4.0742019e-07 2.5372874e-18)
(0.29122579 -9.3892354e-07 2.6291759e-18)
(0.28710542 -1.1996858e-06 2.1081785e-18)
(0.28123222 -1.2273028e-06 1.8997258e-18)
(0.27373687 -1.0622596e-06 1.5658679e-18)
(0.2645471 -7.9824396e-07 1.977698e-18)
(0.2532746 -5.1813084e-07 2.1125333e-18)
(0.23893453 -2.7920962e-07 1.8739605e-18)
(0.21906455 -1.1726007e-07 1.7641646e-18)
(0.18439778 -2.9136279e-08 1.4481928e-18)
(0.29325331 -3.4498468e-07 1.6800025e-18)
(0.29123936 -7.9356761e-07 3.4507554e-18)
(0.28711402 -1.0033378e-06 3.575031e-18)
(0.28123563 -1.0098137e-06 2.5527351e-18)
(0.27373611 -8.5421073e-07 2.2091141e-18)
(0.26454376 -6.2164008e-07 1.0591723e-18)
(0.25327028 -3.8501547e-07 1.7130564e-18)
(0.23893054 -1.9257021e-07 1.8080318e-18)
(0.21906179 -7.067313e-08 1.536345e-18)
(0.18439651 -1.3130315e-08 1.3401217e-18)