# y+ ()         
# Time          	patch           	min             	max             	average         
30000           	water_to_rock	3.97592859e+01	4.31007155e+01	4.10396936e+01
