/*--------------------------------*- C++ -*----------------------------------*\
| =========                 |                                                 |
| \\      /  F ield         | OpenFOAM: The Open Source CFD Toolbox           |
|  \\    /   O peration     | Version:  2506                                  |
|   \\  /    A nd           | Website:  www.openfoam.com                      |
|    \\/     M anipulation  |                                                 |
\*---------------------------------------------------------------------------*/
FoamFile
{
    version     2.0;
    format      ascii;
    arch        "LSB;label=32;scalar=64";
    class       volScalarField;
    location    "8000/water";
    object      alphat;
}
// * * * * * * * * * * * * * * * * * * * * * * * * * * * * * * * * * * * * * //

dimensions      [1 -1 -1 0 0 0 0];

internalField   nonuniform List<scalar> 
6000
(
0.041292847
0.041292824
0.041292831
0.041292856
0.041292889
0.041292932
0.041292983
0.041293016
0.041292808
0.041290571
0.041271537
0.041111294
0.0397723
0.030564074
0.013464793
0.040788543
0.040788537
0.040788576
0.040788654
0.040788758
0.040788888
0.04078902
0.040788972
0.040787494
0.040776037
0.040696382
0.040161217
0.036863805
0.023766469
0.015141611
0.04033569
0.040335696
0.040335761
0.040335884
0.040336044
0.040336229
0.04033633
0.040335685
0.040330323
0.040296649
0.040097616
0.038983223
0.033614213
0.0194951
0.016360294
0.039926215
0.039926219
0.039926301
0.039926459
0.03992666
0.039926848
0.039926701
0.039924457
0.039910659
0.039835636
0.039448738
0.037597438
0.030384627
0.016783058
0.017196555
0.039553796
0.039553808
0.039553906
0.039554093
0.039554312
0.039554413
0.039553622
0.0395481
0.039519187
0.039379112
0.038737841
0.036066498
0.027427863
0.015063192
0.01773179
0.039213273
0.039213296
0.039213408
0.039213613
0.039213809
0.039213657
0.039211571
0.039200298
0.039147643
0.038916647
0.037965398
0.034462847
0.024852826
0.013984463
0.018040007
0.038900366
0.038900399
0.038900521
0.038900723
0.038900826
0.038900159
0.038895819
0.03887551
0.038788999
0.038441492
0.037140256
0.032849727
0.022675913
0.013336844
0.018183117
0.038611532
0.038611573
0.038611697
0.038611866
0.038611765
0.038610199
0.038602307
0.038568928
0.038437606
0.037950377
0.036275872
0.031274836
0.020870828
0.012994967
0.018210197
0.038343817
0.038343862
0.038343975
0.038344065
0.038343601
0.038340605
0.038327517
0.03827644
0.038089201
0.037442856
0.03538704
0.029770034
0.019396999
0.012882914
0.018158676
0.038094736
0.03809478
0.038094862
0.038094803
0.038093753
0.038088644
0.038068396
0.037994592
0.037740813
0.036920504
0.03448763
0.028354169
0.018213448
0.012953916
0.018056304
0.037862183
0.037862216
0.037862238
0.037861935
0.037860009
0.037851941
0.037822294
0.037720559
0.037390607
0.036386134
0.033589398
0.02703684
0.017284481
0.013178532
0.017923231
0.03764436
0.037644371
0.037644291
0.037643618
0.037640447
0.037628426
0.037586933
0.037452106
0.037037684
0.035843147
0.032701562
0.025821837
0.016581272
0.013537499
0.017773886
0.037439726
0.037439699
0.03743946
0.037438254
0.037433393
0.037416287
0.037360374
0.037187532
0.036681868
0.035295042
0.031830871
0.02470985
0.016081614
0.014017191
0.017618497
0.037246949
0.037246861
0.037246392
0.037244452
0.037237378
0.037213943
0.037140989
0.036925609
0.0363235
0.034745073
0.030981931
0.023700436
0.015768976
0.014606606
0.017464261
0.037064871
0.037064693
0.037063903
0.037060987
0.037051109
0.037020016
0.036927437
0.036665512
0.035963258
0.03419604
0.030157673
0.022793377
0.015631332
0.015295285
0.017316197
0.03689248
0.036892177
0.036890955
0.036886782
0.036873442
0.036833316
0.036718634
0.03640675
0.035602004
0.033650187
0.029359858
0.021989538
0.015659917
0.016071914
0.01717775
0.036728885
0.036728414
0.036726628
0.036720878
0.03670337
0.036652818
0.036513731
0.036149096
0.035240656
0.033109157
0.028589603
0.021291346
0.015847992
0.016923492
0.017051196
0.036573301
0.03657261
0.036570106
0.036562424
0.036540005
0.036477653
0.03631208
0.035892529
0.034880099
0.032574024
0.027847913
0.02070292
0.016189617
0.01783505
0.016937916
0.036425028
0.036424056
0.036420663
0.036410663
0.036382564
0.036307092
0.036113215
0.03563717
0.034521109
0.032045349
0.027136212
0.020229918
0.016678486
0.018789895
0.016838558
0.036283441
0.03628212
0.036277645
0.036264917
0.036230367
0.036140535
0.03591682
0.035383242
0.034164308
0.031523285
0.026456862
0.019879123
0.017306891
0.019770317
0.016753165
0.036147982
0.036146234
0.036140468
0.036124584
0.036082821
0.035977497
0.035722708
0.035131018
0.033810124
0.031007717
0.025813646
0.019657797
0.018064912
0.0207586
0.016681265
0.036018143
0.036015885
0.036008605
0.035989127
0.035939416
0.035817597
0.035530799
0.034880794
0.033458783
0.030498445
0.025212142
0.019572905
0.018939949
0.021738147
0.016621966
0.03589347
0.03589061
0.035881581
0.035858069
0.035799718
0.035660549
0.035341095
0.034632853
0.033110301
0.029995409
0.024659951
0.019630248
0.019916664
0.02269449
0.016574063
0.035773545
0.035769987
0.035758968
0.035730991
0.035663366
0.035506152
0.035153669
0.034387441
0.032764498
0.029498968
0.024166686
0.019833637
0.020977366
0.023616003
0.016536152
0.035657992
0.035653635
0.035640383
0.035607524
0.035530063
0.035354279
0.034968643
0.03414475
0.03242103
0.029010211
0.023743688
0.020184173
0.022102784
0.024494228
0.016506745
0.035546464
0.035541207
0.035525479
0.03548735
0.035399574
0.035204869
0.034786172
0.033904896
0.032079439
0.028531301
0.023403466
0.020679734
0.023273104
0.025323802
0.016484372
0.035438647
0.035432386
0.035413948
0.035370193
0.035271718
0.035057919
0.034606436
0.03366791
0.03173923
0.028065807
0.023158914
0.021314706
0.0244691
0.026102089
0.016467662
0.035334251
0.035326887
0.035305516
0.035255823
0.03514637
0.034913479
0.03442962
0.033433727
0.031399978
0.02761899
0.023022388
0.022080016
0.02567317
0.026828633
0.016455398
0.035233012
0.035224448
0.035199939
0.03514405
0.035023453
0.034771643
0.034255909
0.033202186
0.031061475
0.027197981
0.02300477
0.022963453
0.026870128
0.027504567
0.016446544
0.035134691
0.035124836
0.035097009
0.035034724
0.034902936
0.03463254
0.03408547
0.032973033
0.030723902
0.0268118
0.023114633
0.023950249
0.02804767
0.028132079
0.016440248
0.035039067
0.03502784
0.034996542
0.034927732
0.034784832
0.034496333
0.033918446
0.032745938
0.030388046
0.026471167
0.023357597
0.025023883
0.02919649
0.028713983
0.016435834
0.034945943
0.034933275
0.034898386
0.034822996
0.034669194
0.034363211
0.033754944
0.032520522
0.030055535
0.026188099
0.023735915
0.026166982
0.030310099
0.029253407
0.016432778
0.034855141
0.034840974
0.034802418
0.034720475
0.034556112
0.034233382
0.033595029
0.032296401
0.029729078
0.025975302
0.024248334
0.02736225
0.031384439
0.029753594
0.016430685
0.034766502
0.034750797
0.03470854
0.034620164
0.034445715
0.034107066
0.033438713
0.032073259
0.029412693
0.025845434
0.02489019
0.028593298
0.032417399
0.030217765
0.016429265
0.034679887
0.034662624
0.034616684
0.034522088
0.034338162
0.033984492
0.033285952
0.031850929
0.029111866
0.025810314
0.025653731
0.029845306
0.033408314
0.030649046
0.016428312
0.034595176
0.034576356
0.034526808
0.034426308
0.034233647
0.033865888
0.033136649
0.03162952
0.028833633
0.025880169
0.026528619
0.031105458
0.034357529
0.03105041
0.016427682
0.034512269
0.034491917
0.034438897
0.034332917
0.034132389
0.033751478
0.032990657
0.031409555
0.028586514
0.026063009
0.027502553
0.032363144
0.035266042
0.031424648
0.01642728
0.034431083
0.034409252
0.034352965
0.034242042
0.034034637
0.033641469
0.032847794
0.031192142
0.028380315
0.026364175
0.028561978
0.033609948
0.036135248
0.031774346
0.016427047
0.034351558
0.034328331
0.034269052
0.034153841
0.033940664
0.03353605
0.032707869
0.03097915
0.028225758
0.026786089
0.029692787
0.034839473
0.03696677
0.032101874
0.01642695
0.034273652
0.034249145
0.03418723
0.034068505
0.03385076
0.033435383
0.03257072
0.030773392
0.028133997
0.02732822
0.030880993
0.036047067
0.037762344
0.032409381
0.016426974
0.034197344
0.03417171
0.034107598
0.033986257
0.033765237
0.033339598
0.032436275
0.030578781
0.028116031
0.027987223
0.032113284
0.037229502
0.038523755
0.032698799
0.016427117
0.034122637
0.034096064
0.034030285
0.033907355
0.033684417
0.033248788
0.032304627
0.030400435
0.028182106
0.028757249
0.03337746
0.038384662
0.039252794
0.032971855
0.016427382
0.034049553
0.034022276
0.033955452
0.033832084
0.033608631
0.033163012
0.03217613
0.030244713
0.028341139
0.029630357
0.034662706
0.039511265
0.039951228
0.033230086
0.016427779
0.03397814
0.033950437
0.033883292
0.033760766
0.033538214
0.033082299
0.032051523
0.030119153
0.028600246
0.03059702
0.035959727
0.04060864
0.040620777
0.033474856
0.016428318
0.033908471
0.033880668
0.033814033
0.033693749
0.033473498
0.033006661
0.031932061
0.03003229
0.028964395
0.031646651
0.037260743
0.041676558
0.0412631
0.033707373
0.01642901
0.033840644
0.033813121
0.033747936
0.033631414
0.033414804
0.032936114
0.031819661
0.029993368
0.02943621
0.032768128
0.038559404
0.042715107
0.041879779
0.033928705
0.016429865
0.033774787
0.03374798
0.033685299
0.033574167
0.033362441
0.032870717
0.031717044
0.03001196
0.030015932
0.033950282
0.039850628
0.043724611
0.042472314
0.034139802
0.016430892
0.033711057
0.03368546
0.033626458
0.03352244
0.033316699
0.032810615
0.031627852
0.030097518
0.030701522
0.0351823
0.041130414
0.044705563
0.043042113
0.034341502
0.016432097
0.033649643
0.033625814
0.033571787
0.033476689
0.033277844
0.032756112
0.031556733
0.030258902
0.031488876
0.036454042
0.042395662
0.045658586
0.043590498
0.034534553
0.016433487
0.03359077
0.033569333
0.033521698
0.033437387
0.03324612
0.032707756
0.031509356
0.030503937
0.032372142
0.037756265
0.043643994
0.046584395
0.044118699
0.034719618
0.016435064
0.033534699
0.033516348
0.033476647
0.033405019
0.033221753
0.032666433
0.031492358
0.030839026
0.033344085
0.039080733
0.04487361
0.047483769
0.044627864
0.034897289
0.016436831
0.033481731
0.033467235
0.033437127
0.033380083
0.033204961
0.03263349
0.031513196
0.031268864
0.03439649
0.040420263
0.046083174
0.048357533
0.045119059
0.035068096
0.016438788
0.033432211
0.033422413
0.033403675
0.033363076
0.033195977
0.032610855
0.031579922
0.031796263
0.035520552
0.041768688
0.047271716
0.04920653
0.045593277
0.035232514
0.016440933
0.033386531
0.033382352
0.033376864
0.033354497
0.033195078
0.03260115
0.031700871
0.032422089
0.036707254
0.043120786
0.048438562
0.050031614
0.046051438
0.035390969
0.016443266
0.033345134
0.033347573
0.033357309
0.033354836
0.033202628
0.032607792
0.031884306
0.033145317
0.037947673
0.04447218
0.049583281
0.050833633
0.046494397
0.035543844
0.016445782
0.033308518
0.033318652
0.033345661
0.033364571
0.033219143
0.032635061
0.032138041
0.033963177
0.03923325
0.045819221
0.050705638
0.051613421
0.046922952
0.03569149
0.016448478
0.033277237
0.03329622
0.033342601
0.033384174
0.033245363
0.03268811
0.032469069
0.034871381
0.040555966
0.047158891
0.05180556
0.052371795
0.04733784
0.035834219
0.016451351
0.033251914
0.033280969
0.033348845
0.033414106
0.033282345
0.032772917
0.032883246
0.035864398
0.041908471
0.0484887
0.0528831
0.053109547
0.047739749
0.03597232
0.016454394
0.033233235
0.033273652
0.033365129
0.033454836
0.033331563
0.032896165
0.033385033
0.036935758
0.04328414
0.049806604
0.053938419
0.053827443
0.048129319
0.036106053
0.016457603
0.033221962
0.033275082
0.033392211
0.033506852
0.033395017
0.03306505
0.033977334
0.038078363
0.044677085
0.051110934
0.054971757
0.054526219
0.048507145
0.036235659
0.016460974
0.033218934
0.033286139
0.033430864
0.033570697
0.033475332
0.033287021
0.034661421
0.039284777
0.04608213
0.052400341
0.055983418
0.055206587
0.048873783
0.036361356
0.016464499
0.033225073
0.033307763
0.033481871
0.033647009
0.033575846
0.033569484
0.035436951
0.040547491
0.047494761
0.053673744
0.056973754
0.055869226
0.049229756
0.036483355
0.016468174
0.033241386
0.033340956
0.033546022
0.033736579
0.033700661
0.033919478
0.036302066
0.041859136
0.048911067
0.054930291
0.05794315
0.056514769
0.049575443
0.036601083
0.01647199
0.033268972
0.03338678
0.033624113
0.033840421
0.033854652
0.034343363
0.037253557
0.043212656
0.050327671
0.056169322
0.058892008
0.057143807
0.049911242
0.036714879
0.016475942
0.033309024
0.033446356
0.033716954
0.033959861
0.034043422
0.034846539
0.038287076
0.044601424
0.051741666
0.057390339
0.059820745
0.057756912
0.050237556
0.036825046
0.016480019
0.03336283
0.033520853
0.033825377
0.034096629
0.034273183
0.035433219
0.039397375
0.046019313
0.053150558
0.058592978
0.060729791
0.058354635
0.050554797
0.036931851
0.016484214
0.033431776
0.033611491
0.033950258
0.034252955
0.034550593
0.036106274
0.040578558
0.047460738
0.054552211
0.059776992
0.061619574
0.058937454
0.050862924
0.037035581
0.016488518
0.033517344
0.033719533
0.03409255
0.034431666
0.034882517
0.036867154
0.041824323
0.048920649
0.055944806
0.060942227
0.062490516
0.059505811
0.051162151
0.037136397
0.016492923
0.033621115
0.033846282
0.034253324
0.034636252
0.035275768
0.037715885
0.043128179
0.050394526
0.057326792
0.062088605
0.063343036
0.060060163
0.051452981
0.037234385
0.016497425
0.033744758
0.03399308
0.034433836
0.034870908
0.035736815
0.038651139
0.044483639
0.051878337
0.058696858
0.063216114
0.064177552
0.060600973
0.051735851
0.037329654
0.016502019
0.033890035
0.03416131
0.034635592
0.035140535
0.036271506
0.039670361
0.04588437
0.053368505
0.060053899
0.064324794
0.064994471
0.061128572
0.052011163
0.037422331
0.0165067
0.034058788
0.034352406
0.034860442
0.035450674
0.036884818
0.040769941
0.047324307
0.054861869
0.061396989
0.065414725
0.065794143
0.061642947
0.052279305
0.037512563
0.016511467
0.034252938
0.034567873
0.035110665
0.035807393
0.037580648
0.041945411
0.048797737
0.056355638
0.062725355
0.066486017
0.066576929
0.062144667
0.052540483
0.037600453
0.016516317
0.034474482
0.034809315
0.035389067
0.036217116
0.038361674
0.043191655
0.050299337
0.057847354
0.064038355
0.067538803
0.067343213
0.062634244
0.052794917
0.037686088
0.016521247
0.03472549
0.035078476
0.035699052
0.036686392
0.039229276
0.044503117
0.051824203
0.059334857
0.06533546
0.06857325
0.068093394
0.063112137
0.053042836
0.037769546
0.016526253
0.035008112
0.035377301
0.036044685
0.037221647
0.040183536
0.045873992
0.05336785
0.060816255
0.066616244
0.069589501
0.06882737
0.063578807
0.05328449
0.037850923
0.016531331
0.03532459
0.03570801
0.036430698
0.037828912
0.041223288
0.047298393
0.054926197
0.06228989
0.06788035
0.070587708
0.069545619
0.064034565
0.053520088
0.037930307
0.016536479
0.035677287
0.036073176
0.036862464
0.038513565
0.042346235
0.048770488
0.056495549
0.063754304
0.069127488
0.071568061
0.070248613
0.064479709
0.053749815
0.038007771
0.016541693
0.036068723
0.036475823
0.037345905
0.039280101
0.04354909
0.050284611
0.05807257
0.065208224
0.070357433
0.072530785
0.070936787
0.064914535
0.05397385
0.03808338
0.016546969
0.03650163
0.036919506
0.03788734
0.040131951
0.044827758
0.051835339
0.059654259
0.066650547
0.071569999
0.073475727
0.071610524
0.065339341
0.054192383
0.038157197
0.016552305
0.036979024
0.037408386
0.038493287
0.041071364
0.046177516
0.053417546
0.061237917
0.068080292
0.072765014
0.074403188
0.072270171
0.06575439
0.054405591
0.038229281
0.016557696
0.037504286
0.03794727
0.039170218
0.04209934
0.047593198
0.055026427
0.062821116
0.069496595
0.073942365
0.075313493
0.072916047
0.066159929
0.054613631
0.038299688
0.01656314
0.03808124
0.038541608
0.0399243
0.043215646
0.049069366
0.056657519
0.064401679
0.070898702
0.07510191
0.076206924
0.073548449
0.0665562
0.054816652
0.038368466
0.016568632
0.038714236
0.03919743
0.040761124
0.044418873
0.050600458
0.058306694
0.065977655
0.072285945
0.076243439
0.077083726
0.074167653
0.066943446
0.055014794
0.038435663
0.01657417
0.039408191
0.039921225
0.041685467
0.045706548
0.052180914
0.05997015
0.067547278
0.073657701
0.077366974
0.077944205
0.074773922
0.067321889
0.05520819
0.038501319
0.016579751
0.0401686
0.040719753
0.042701087
0.047075279
0.053805274
0.06164439
0.069108947
0.07501344
0.078472605
0.078788616
0.075367508
0.067691736
0.055396963
0.038565473
0.01658537
0.041001483
0.041599796
0.043810572
0.048520921
0.05546826
0.063326225
0.070661259
0.07635256
0.079560259
0.079617161
0.075948662
0.068053183
0.055581229
0.038628161
0.016591025
0.041913257
0.042567875
0.045015259
0.050038746
0.057164817
0.065012718
0.072202871
0.077674597
0.080630131
0.080430046
0.076517619
0.068406418
0.055761094
0.038689414
0.016596712
0.042910532
0.043629949
0.046315207
0.051623604
0.058890142
0.066701162
0.073732564
0.078979241
0.081682351
0.081227469
0.077074598
0.068751614
0.055936659
0.038749263
0.016602429
0.043999834
0.044791105
0.047709234
0.053270088
0.060639726
0.068389123
0.075249199
0.080266021
0.082716969
0.082009628
0.077619803
0.069088931
0.056108014
0.038807734
0.016608172
0.045187272
0.046055293
0.049195004
0.054972654
0.062409319
0.070074283
0.076751676
0.081534841
0.083734045
0.082776706
0.078153428
0.069418522
0.056275246
0.038864851
0.016613937
0.046478161
0.047425102
0.050769144
0.056725732
0.064194933
0.071754498
0.078239056
0.082785576
0.084733648
0.083528869
0.078675653
0.069740525
0.056438431
0.038920634
0.016619723
0.04787666
0.048901595
0.052427399
0.058523827
0.065992886
0.0734278
0.079710316
0.084018004
0.08571584
0.084266274
0.079186642
0.070055067
0.056597641
0.038975103
0.016625525
0.049385431
0.050484226
0.054164769
0.060361539
0.067799632
0.075092232
0.081164968
0.085231941
0.086680673
0.084989061
0.079686546
0.070362267
0.056752939
0.039028275
0.016631341
0.051005371
0.052170824
0.055975679
0.062233669
0.069611912
0.076745842
0.08260239
0.086427214
0.087628186
0.085697355
0.080175502
0.070662228
0.056904383
0.039080162
0.016637167
0.052735434
0.05395764
0.05785409
0.064135124
0.071426501
0.078387241
0.084021971
0.087603646
0.088558407
0.086391267
0.080653631
0.070955047
0.057052025
0.039130776
0.016643001
0.054572568
0.055839472
0.059793655
0.066061021
0.07324017
0.080015135
0.085423137
0.088761057
0.089471348
0.087070889
0.081121041
0.071240808
0.057195908
0.039180127
0.016648839
0.056511751
0.057809795
0.061787723
0.068006441
0.075050348
0.081628267
0.08680533
0.08989926
0.090367006
0.087736296
0.081577824
0.071519582
0.057336071
0.039228222
0.016654679
0.058546151
0.059860954
0.063829426
0.069966592
0.076854664
0.083225438
0.088168004
0.091018055
0.091245359
0.088387545
0.082024056
0.071791433
0.057472547
0.039275065
0.016660517
0.060667306
0.061984239
0.065911624
0.071937312
0.078650863
0.084805502
0.089510619
0.09211723
0.092106365
0.089024672
0.082459798
0.072056411
0.05760536
0.039320659
0.01666635
0.062865324
0.064170255
0.068027489
0.073914593
0.080436796
0.086367352
0.09083264
0.093196558
0.09294996
0.089647696
0.082885095
0.072314554
0.05773453
0.039365003
0.016672175
0.065129353
0.066409208
0.070170238
0.075894564
0.082210405
0.087909916
0.092133526
0.094255792
0.093776062
0.090256614
0.083299974
0.072565892
0.057860069
0.039408095
0.016677989
0.067447957
0.068691091
0.072333179
0.077873485
0.083969708
0.08943215
0.093412734
0.095294669
0.094584563
0.090851402
0.083704447
0.072810441
0.057981985
0.039449931
0.016683788
0.069809476
0.071005883
0.074509741
0.079847729
0.085712791
0.09093303
0.094669715
0.096312907
0.095375334
0.091432016
0.08409851
0.073048206
0.058100275
0.039490502
0.01668957
0.072202329
0.073343729
0.076693514
0.08181378
0.0874378
0.092411554
0.095903915
0.097310203
0.096148224
0.091998391
0.084482141
0.07327918
0.058214935
0.0395298
0.01669533
0.074615286
0.075695095
0.078878288
0.083768226
0.089142931
0.093866735
0.097114773
0.098286239
0.09690306
0.092550442
0.084855302
0.073503346
0.05832595
0.039567812
0.016701064
0.077037667
0.078050901
0.081058091
0.085707763
0.090826431
0.095297604
0.098301723
0.09924068
0.097639649
0.093088063
0.085217938
0.073720673
0.058433301
0.039604524
0.016706771
0.079459496
0.080402615
0.083227222
0.087629195
0.092486592
0.096703207
0.099464199
0.10017318
0.098357778
0.093611131
0.08556998
0.073931121
0.058536961
0.039639918
0.016712444
0.0818716
0.082742331
0.085380294
0.089529449
0.094121756
0.098082613
0.10060163
0.10108337
0.099057222
0.094119506
0.085911344
0.07413464
0.058636899
0.039673976
0.016718081
0.08426567
0.085062814
0.087512255
0.091405581
0.095730319
0.099434909
0.10171347
0.1019709
0.099737738
0.094613033
0.086241933
0.074331168
0.058733075
0.039706676
0.016723677
0.086634273
0.08735752
0.089618416
0.093254791
0.097310733
0.10075921
0.10279915
0.10283539
0.10039908
0.095091543
0.086561635
0.074520635
0.058825445
0.039737994
0.016729227
0.088970846
0.089620604
0.091694471
0.095074435
0.098861513
0.10205467
0.10385815
0.10367649
0.10104098
0.09555486
0.086870333
0.074702962
0.058913962
0.039767904
0.016734728
0.091269666
0.091846906
0.093736504
0.096862041
0.10038125
0.10332047
0.10488995
0.10449382
0.1016632
0.096002801
0.087167898
0.074878065
0.058998572
0.039796379
0.016740174
0.093525804
0.094031925
0.095740995
0.098615316
0.10186861
0.10455583
0.10589405
0.10528706
0.10226548
0.096435178
0.087454198
0.075045853
0.059079219
0.03982339
0.016745561
0.095735064
0.096171786
0.097704819
0.10033216
0.10332235
0.10576003
0.10687
0.10605588
0.10284756
0.096851806
0.087729096
0.075206232
0.059155842
0.039848907
0.016750882
0.097893933
0.098263198
0.099625236
0.10201067
0.10474132
0.10693241
0.10781737
0.10679996
0.10340923
0.097252506
0.087992457
0.075359106
0.059228381
0.0398729
0.016756134
0.099999511
0.10030341
0.10149988
0.10364914
0.10612448
0.10807234
0.10873579
0.10751905
0.10395026
0.097637105
0.088244148
0.075504378
0.059296774
0.039895338
0.01676131
0.10204945
0.10229017
0.10332674
0.10524607
0.10747089
0.10917929
0.1096249
0.10821289
0.10447047
0.098005444
0.088484043
0.075641956
0.059360961
0.039916191
0.016766405
0.10404191
0.10422168
0.10510415
0.10680018
0.10877972
0.11025277
0.11048443
0.10888129
0.10496968
0.098357381
0.088712024
0.07577175
0.059420882
0.03993543
0.016771414
0.10597547
0.10609652
0.10683074
0.10831037
0.11005025
0.11129237
0.11131414
0.10952407
0.10544776
0.098692795
0.088927987
0.075893678
0.059476483
0.039953026
0.01677633
0.10784912
0.10791368
0.10850546
0.10977573
0.1112819
0.11229777
0.11211384
0.11014113
0.10590461
0.099011587
0.089131843
0.076007667
0.059527713
0.039968954
0.016781148
0.10966219
0.10967243
0.1101275
0.11119555
0.11247417
0.1132687
0.11288341
0.11073238
0.10634016
0.099313687
0.089323519
0.076113655
0.059574527
0.039983192
0.016785862
0.11141429
0.11137235
0.11169633
0.11256929
0.11362671
0.11420498
0.11362278
0.1112978
0.10675438
0.099599051
0.089502965
0.076211594
0.059616889
0.039995719
0.016790467
0.11310531
0.11301326
0.11321161
0.11389658
0.11473925
0.11510652
0.11433194
0.11183741
0.10714728
0.099867669
0.089670153
0.076301448
0.05965477
0.04000652
0.016794957
0.11473537
0.11459522
0.11467322
0.11517722
0.11581165
0.11597327
0.11501094
0.11235127
0.10751891
0.10011956
0.089825079
0.076383201
0.059688153
0.040015585
0.016799326
0.11630478
0.11611847
0.11608124
0.11641114
0.11684388
0.11680528
0.11565989
0.11283951
0.10786937
0.10035479
0.089967765
0.076456854
0.059717029
0.040022907
0.01680357
0.11781403
0.11758341
0.11743587
0.11759841
0.11783597
0.11760267
0.11627895
0.1133023
0.10819879
0.10057344
0.090098262
0.076522427
0.059741405
0.040028486
0.016807684
0.11926374
0.11899062
0.11873748
0.11873923
0.1187881
0.11836563
0.11686834
0.11373984
0.10850736
0.10077564
0.090216646
0.076579959
0.059761296
0.040032326
0.016811663
0.12065467
0.12034078
0.11998658
0.11983391
0.11970049
0.1190944
0.11742832
0.11415239
0.10879529
0.10096155
0.090323023
0.076629512
0.059776732
0.040034439
0.016815503
0.12198769
0.12163468
0.12118376
0.12088286
0.12057348
0.11978931
0.11795922
0.11454027
0.10906283
0.10113138
0.090417527
0.076671166
0.059787757
0.040034841
0.016819199
0.12326376
0.12287323
0.12232974
0.12188659
0.12140746
0.12045073
0.11846142
0.11490381
0.10931028
0.10128533
0.090500318
0.076705024
0.059794428
0.040033557
0.01682275
0.12448392
0.12405738
0.12342531
0.12284569
0.12220291
0.12107907
0.11893531
0.11524339
0.10953798
0.10142369
0.090571587
0.076731209
0.059796814
0.040030615
0.016826151
0.12564925
0.12518818
0.12447134
0.12376083
0.12296035
0.12167484
0.11938136
0.11555945
0.10974628
0.10154673
0.090631546
0.076749865
0.059794999
0.040026052
0.016829401
0.12676093
0.12626672
0.12546875
0.12463273
0.12368039
0.12223855
0.11980007
0.11585243
0.10993558
0.10165478
0.090680436
0.076761153
0.059789078
0.040019907
0.016832497
0.12782014
0.12729416
0.12641853
0.12546219
0.12436366
0.12277078
0.12019195
0.11612282
0.11010631
0.10174819
0.090718518
0.076765254
0.05977916
0.04001223
0.016835437
0.12882813
0.12827167
0.12732172
0.12625005
0.12501086
0.12327214
0.12055758
0.11637113
0.11025892
0.10182733
0.090746078
0.076762367
0.059765364
0.040003071
0.016838222
0.12978616
0.12920046
0.12817939
0.12699718
0.12562273
0.12374326
0.12089755
0.11659791
0.11039388
0.10189259
0.09076342
0.076752706
0.05974782
0.039992487
0.01684085
0.13069551
0.13008178
0.12899264
0.12770452
0.12620003
0.12418483
0.12121246
0.11680371
0.11051169
0.10194439
0.090770865
0.076736499
0.059726669
0.039980541
0.016843322
0.1315575
0.13091688
0.12976259
0.12837301
0.12674356
0.12459755
0.12150297
0.11698912
0.11061285
0.10198315
0.090768752
0.076713989
0.059702058
0.039967297
0.016845638
0.13237343
0.13170703
0.1304904
0.12900364
0.12725415
0.12498215
0.12176973
0.11715474
0.11069791
0.10200933
0.090757434
0.076685428
0.059674145
0.039952823
0.016847798
0.13314463
0.13245352
0.13117722
0.12959739
0.12773266
0.12533937
0.1220134
0.11730117
0.1107674
0.10202338
0.090737275
0.076651082
0.059643092
0.039937192
0.016849806
0.13387241
0.13315762
0.13182423
0.13015529
0.12817994
0.12566997
0.12223469
0.11742905
0.11082188
0.10202577
0.09070865
0.076611221
0.059609069
0.039920478
0.016851662
0.13455812
0.13382062
0.13243261
0.13067836
0.1285969
0.12597473
0.12243429
0.117539
0.11086191
0.10201699
0.090671942
0.076566125
0.059572249
0.039902755
0.016853369
0.13520305
0.1344438
0.13300354
0.13116765
0.12898441
0.12625443
0.12261291
0.11763167
0.11088806
0.10199751
0.09062754
0.076516078
0.059532808
0.0398841
0.01685493
0.13580854
0.13502844
0.1335382
0.13162418
0.12934338
0.12650988
0.12277125
0.1177077
0.11090089
0.10196783
0.090575839
0.076461368
0.059490926
0.039864592
0.016856347
0.13637586
0.1355758
0.13403777
0.13204901
0.12967473
0.12674187
0.12291005
0.11776773
0.110901
0.10192844
0.090517233
0.076402286
0.059446784
0.039844308
0.016857624
0.13690633
0.13608715
0.13450341
0.13244318
0.12997935
0.12695119
0.12303001
0.11781242
0.11088894
0.10187983
0.090452121
0.076339123
0.059400561
0.039823326
0.016858766
0.13740121
0.13656373
0.13493629
0.13280772
0.13025817
0.12713866
0.12313186
0.11784242
0.1108653
0.1018225
0.0903809
0.076272171
0.05935244
0.039801722
0.016859774
0.13786177
0.13700677
0.13533757
0.13314367
0.13051208
0.12730507
0.12321631
0.11785836
0.11083065
0.10175693
0.090303964
0.076201719
0.059302597
0.039779572
0.016860655
0.13828924
0.13741749
0.13570837
0.13345205
0.13074199
0.12745123
0.12328406
0.11786088
0.11078554
0.1016836
0.090221706
0.076128053
0.059251211
0.039756951
0.016861411
0.13868486
0.13779707
0.13604983
0.13373387
0.13094879
0.1275779
0.12333584
0.11785062
0.11073055
0.10160301
0.090134511
0.076051458
0.059198455
0.039733931
0.016862049
0.13904983
0.13814671
0.13636304
0.13399015
0.13113337
0.1276859
0.12337233
0.1178282
0.11066622
0.10151561
0.090042762
0.075972211
0.059144499
0.039710584
0.016862571
0.13938532
0.13846755
0.13664911
0.13422186
0.13129661
0.12777598
0.12339423
0.11779424
0.11059311
0.10142188
0.089946832
0.075890586
0.05908951
0.039686977
0.016862983
0.13969252
0.13876073
0.1369091
0.13442998
0.13143938
0.12784892
0.12340222
0.11774935
0.11051173
0.10132226
0.089847089
0.075806848
0.059033649
0.039663177
0.016863289
0.13997254
0.13902737
0.13714407
0.13461547
0.13156252
0.12790547
0.12339697
0.11769412
0.11042263
0.10121722
0.089743891
0.075721258
0.058977072
0.039639246
0.016863495
0.14022651
0.13926856
0.13735505
0.13477928
0.13166688
0.12794637
0.12337914
0.11762914
0.11032631
0.10110718
0.089637587
0.075634067
0.05891993
0.039615245
0.016863605
0.14045552
0.13948537
0.13754304
0.13492232
0.13175328
0.12797235
0.12334938
0.11755499
0.11022327
0.10099258
0.089528516
0.075545519
0.058862369
0.039591232
0.016863624
0.14066063
0.13967883
0.13770905
0.1350455
0.13182253
0.12798413
0.12330832
0.11747222
0.11011402
0.10087381
0.089417009
0.075455849
0.058804525
0.03956726
0.016863557
0.14084289
0.13984998
0.13785403
0.13514972
0.13187542
0.12798241
0.12325658
0.11738139
0.10999902
0.1007513
0.089303382
0.075365283
0.058746533
0.03954338
0.016863408
0.1410033
0.1399998
0.13797894
0.13523583
0.13191273
0.12796789
0.12319477
0.11728303
0.10987873
0.10062542
0.089187943
0.075274038
0.058688519
0.039519642
0.016863183
0.14114287
0.14012927
0.13808468
0.13530468
0.13193522
0.12794122
0.12312349
0.11717766
0.10975362
0.10049656
0.089070987
0.075182322
0.058630601
0.03949609
0.016862885
0.14126255
0.14023933
0.13817217
0.13535711
0.13194363
0.12790307
0.12304331
0.11706579
0.10962412
0.10036507
0.088952799
0.075090334
0.058572893
0.039472765
0.016862519
0.14136329
0.14033091
0.13824228
0.13539391
0.13193868
0.12785408
0.1229548
0.11694791
0.10949065
0.10023131
0.088833651
0.07499826
0.058515501
0.039449708
0.01686209
0.14144599
0.14040488
0.13829585
0.13541587
0.13192108
0.12779487
0.1228585
0.1168245
0.10935361
0.10009562
0.088713803
0.074906281
0.058458525
0.039426952
0.016861602
0.14151155
0.14046214
0.13833372
0.13542376
0.13189152
0.12772605
0.12275495
0.11669602
0.10921342
0.099958326
0.088593504
0.074814565
0.058402058
0.039404532
0.016861059
0.14156082
0.14050352
0.13835669
0.13541832
0.13185065
0.1276482
0.12264466
0.11656292
0.10907044
0.099819729
0.08847299
0.074723273
0.058346186
0.039382477
0.016860465