/*--------------------------------*- C++ -*----------------------------------*\
| =========                 |                                                 |
| \\      /  F ield         | OpenFOAM: The Open Source CFD Toolbox           |
|  \\    /   O peration     | Version:  2506                                  |
|   \\  /    A nd           | Website:  www.openfoam.com                      |
|    \\/     M anipulation  |                                                 |
\*---------------------------------------------------------------------------*/
FoamFile
{
    version     2.0;
    format      ascii;
    arch        "LSB;label=32;scalar=64";
    class       volScalarField;
    location    "8000/water";
    object      T;
}
// * * * * * * * * * * * * * * * * * * * * * * * * * * * * * * * * * * * * * //

dimensions      [0 0 0 1 0 0 0];

internalField   nonuniform List<scalar> 
6000
(
333.15
333.15
333.15
333.15
333.15
333.15
333.15
333.15
333.15
333.15
333.15
333.14998
333.14989
333.14924
333.14255
333.15
333.15
333.15
333.15
333.15
333.15
333.15
333.15
333.15
333.15
333.14999
333.14994
333.14968
333.14816
333.13664
333.15
333.15
333.15
333.15
333.15
333.15
333.15
333.15
333.15
333.14999
333.14997
333.14987
333.14939
333.14688
333.13167
333.15
333.15
333.15
333.15
333.15
333.15
333.15
333.15
333.15
333.14999
333.14994
333.14976
333.14902
333.14546
333.12733
333.15
333.15
333.15
333.15
333.15
333.15
333.15
333.15
333.14999
333.14997
333.1499
333.14963
333.1486
333.14394
333.12343
333.15
333.15
333.15
333.15
333.15
333.15
333.15
333.15
333.14999
333.14996
333.14985
333.14947
333.14812
333.14235
333.11988
333.15
333.15
333.15
333.15
333.15
333.15
333.15
333.14999
333.14998
333.14993
333.14978
333.14929
333.14759
333.1407
333.11661
333.15
333.15
333.15
333.15
333.15
333.15
333.15
333.14999
333.14997
333.14991
333.1497
333.14908
333.14702
333.13902
333.11358
333.15
333.15
333.15
333.15
333.15
333.15
333.15
333.14999
333.14996
333.14987
333.14961
333.14886
333.14642
333.13732
333.11075
333.15
333.15
333.15
333.15
333.15
333.15
333.14999
333.14998
333.14994
333.14983
333.14951
333.14861
333.14577
333.13561
333.1081
333.15
333.15
333.15
333.15
333.15
333.15
333.14999
333.14998
333.14993
333.14978
333.1494
333.14835
333.14508
333.13389
333.10563
333.15
333.15
333.15
333.15
333.15
333.15
333.14999
333.14997
333.1499
333.14973
333.14928
333.14807
333.14435
333.13219
333.10331
333.15
333.15
333.15
333.15
333.15
333.14999
333.14998
333.14996
333.14988
333.14967
333.14915
333.14776
333.14358
333.1305
333.10114
333.15
333.15
333.15
333.15
333.15
333.14999
333.14998
333.14994
333.14985
333.14961
333.14901
333.14744
333.14277
333.12883
333.09911
333.15
333.15
333.15
333.15
333.15
333.14999
333.14997
333.14993
333.14982
333.14954
333.14886
333.14709
333.14192
333.12718
333.09723
333.15
333.15
333.15
333.15
333.15
333.14999
333.14997
333.14991
333.14978
333.14946
333.14869
333.14672
333.14102
333.12558
333.09548
333.15
333.15
333.15
333.15
333.14999
333.14998
333.14996
333.1499
333.14974
333.14938
333.14852
333.14632
333.14008
333.12401
333.09386
333.15
333.15
333.15
333.15
333.14999
333.14998
333.14995
333.14988
333.1497
333.14929
333.14833
333.14589
333.1391
333.12248
333.09237
333.15
333.15
333.15
333.15
333.14999
333.14998
333.14994
333.14985
333.14965
333.14919
333.14813
333.14544
333.13808
333.12101
333.091
333.15
333.15
333.15
333.14999
333.14999
333.14997
333.14993
333.14983
333.1496
333.14909
333.14792
333.14494
333.13702
333.11959
333.08975
333.15
333.15
333.15
333.14999
333.14999
333.14997
333.14992
333.1498
333.14955
333.14898
333.14769
333.14441
333.13593
333.11823
333.08861
333.15
333.15
333.15
333.14999
333.14998
333.14996
333.1499
333.14977
333.14949
333.14887
333.14744
333.14385
333.13481
333.11693
333.08758
333.15
333.15
333.15
333.14999
333.14998
333.14995
333.14989
333.14974
333.14943
333.14874
333.14717
333.14324
333.13368
333.1157
333.08664
333.15
333.15
333.14999
333.14999
333.14998
333.14994
333.14987
333.14971
333.14936
333.14861
333.14688
333.14259
333.13254
333.11453
333.0858
333.15
333.15
333.14999
333.14999
333.14997
333.14993
333.14985
333.14967
333.14929
333.14846
333.14657
333.1419
333.1314
333.11342
333.08503
333.15
333.15
333.14999
333.14998
333.14997
333.14992
333.14983
333.14963
333.14921
333.14831
333.14623
333.14117
333.13027
333.11238
333.08433
333.15
333.15
333.14999
333.14998
333.14996
333.14991
333.14981
333.14959
333.14913
333.14814
333.14586
333.1404
333.12916
333.11139
333.0837
333.15
333.14999
333.14999
333.14998
333.14995
333.1499
333.14978
333.14954
333.14904
333.14796
333.14546
333.1396
333.12806
333.11046
333.08313
333.15
333.14999
333.14999
333.14998
333.14995
333.14989
333.14976
333.14949
333.14894
333.14776
333.14503
333.13877
333.127
333.10958
333.0826
333.14999
333.14999
333.14999
333.14997
333.14994
333.14987
333.14973
333.14944
333.14884
333.14755
333.14457
333.13792
333.12597
333.10875
333.08212
333.14999
333.14999
333.14998
333.14997
333.14993
333.14986
333.1497
333.14938
333.14873
333.14732
333.14407
333.13705
333.12498
333.10797
333.08168
333.14999
333.14999
333.14998
333.14996
333.14992
333.14984
333.14967
333.14932
333.14861
333.14706
333.14354
333.13617
333.12402
333.10723
333.08128
333.14999
333.14999
333.14998
333.14996
333.14991
333.14982
333.14963
333.14926
333.14848
333.14679
333.14298
333.13529
333.12311
333.10653
333.0809
333.14999
333.14999
333.14998
333.14995
333.1499
333.1498
333.1496
333.14919
333.14834
333.14649
333.14239
333.13441
333.12223
333.10587
333.08055
333.14999
333.14998
333.14997
333.14995
333.14989
333.14978
333.14956
333.14911
333.14819
333.14617
333.14177
333.13354
333.12138
333.10524
333.08023
333.14999
333.14998
333.14997
333.14994
333.14988
333.14976
333.14951
333.14903
333.14802
333.14583
333.14112
333.13268
333.12058
333.10465
333.07993
333.14999
333.14998
333.14997
333.14993
333.14987
333.14973
333.14947
333.14894
333.14784
333.14545
333.14045
333.13183
333.1198
333.10408
333.07965
333.14998
333.14998
333.14996
333.14993
333.14985
333.14971
333.14942
333.14884
333.14765
333.14505
333.13977
333.13101
333.11906
333.10354
333.07938
333.14998
333.14997
333.14996
333.14992
333.14984
333.14968
333.14937
333.14874
333.14744
333.14463
333.13907
333.1302
333.11835
333.10303
333.07913
333.14998
333.14997
333.14995
333.14991
333.14982
333.14965
333.14931
333.14863
333.14721
333.14417
333.13837
333.12942
333.11767
333.10254
333.0789
333.14998
333.14997
333.14995
333.1499
333.1498
333.14962
333.14925
333.14851
333.14696
333.1437
333.13766
333.12865
333.11702
333.10207
333.07867
333.14997
333.14996
333.14994
333.14989
333.14978
333.14958
333.14918
333.14837
333.14669
333.1432
333.13695
333.12792
333.11639
333.10163
333.07846
333.14997
333.14996
333.14993
333.14988
333.14976
333.14954
333.14911
333.14823
333.1464
333.14267
333.13624
333.1272
333.11579
333.1012
333.07826
333.14997
333.14996
333.14993
333.14986
333.14974
333.1495
333.14903
333.14807
333.14609
333.14213
333.13554
333.1265
333.11521
333.10079
333.07808
333.14996
333.14995
333.14992
333.14985
333.14972
333.14945
333.14894
333.14791
333.14575
333.14158
333.13485
333.12583
333.11466
333.1004
333.07789
333.14996
333.14995
333.14991
333.14984
333.14969
333.14941
333.14885
333.14772
333.1454
333.14101
333.13417
333.12518
333.11412
333.10002
333.07772
333.14995
333.14994
333.1499
333.14982
333.14966
333.14935
333.14875
333.14752
333.14502
333.14043
333.1335
333.12455
333.11361
333.09965
333.07756
333.14995
333.14993
333.14989
333.1498
333.14963
333.1493
333.14864
333.14731
333.14462
333.13984
333.13284
333.12394
333.11311
333.09931
333.0774
333.14994
333.14993
333.14988
333.14978
333.1496
333.14924
333.14852
333.14708
333.14421
333.13925
333.13219
333.12334
333.11263
333.09897
333.07725
333.14994
333.14992
333.14987
333.14976
333.14956
333.14917
333.14839
333.14683
333.14377
333.13866
333.13156
333.12277
333.11217
333.09864
333.07711
333.14993
333.14991
333.14986
333.14974
333.14952
333.1491
333.14826
333.14656
333.14332
333.13807
333.13094
333.12221
333.11172
333.09833
333.07697
333.14992
333.1499
333.14984
333.14972
333.14948
333.14902
333.14811
333.14627
333.14286
333.13748
333.13034
333.12167
333.11129
333.09803
333.07684
333.14992
333.14989
333.14983
333.1497
333.14944
333.14894
333.14794
333.14597
333.14238
333.13689
333.12974
333.12115
333.11087
333.09773
333.07672
333.14991
333.14988
333.14981
333.14967
333.14939
333.14884
333.14777
333.14565
333.14189
333.13631
333.12917
333.12064
333.11046
333.09745
333.07659
333.1499
333.14987
333.14979
333.14964
333.14934
333.14874
333.14757
333.14531
333.14139
333.13573
333.1286
333.12015
333.11007
333.09718
333.07648
333.14989
333.14986
333.14978
333.14961
333.14928
333.14864
333.14737
333.14495
333.14089
333.13516
333.12805
333.11967
333.10969
333.09691
333.07637
333.14988
333.14985
333.14976
333.14957
333.14922
333.14852
333.14715
333.14457
333.14038
333.1346
333.12751
333.1192
333.10931
333.09665
333.07626
333.14987
333.14983
333.14973
333.14954
333.14915
333.14839
333.14691
333.14419
333.13986
333.13405
333.12699
333.11875
333.10895
333.0964
333.07615
333.14986
333.14982
333.14971
333.14949
333.14907
333.14825
333.14666
333.14378
333.13935
333.1335
333.12648
333.1183
333.1086
333.09616
333.07605
333.14984
333.1498
333.14969
333.14945
333.14899
333.1481
333.14639
333.14337
333.13883
333.13296
333.12598
333.11787
333.10826
333.09592
333.07595
333.14983
333.14978
333.14966
333.1494
333.14891
333.14794
333.14611
333.14295
333.13832
333.13244
333.12549
333.11746
333.10793
333.09569
333.07586
333.14982
333.14976
333.14963
333.14935
333.14881
333.14777
333.14581
333.14251
333.13781
333.13192
333.12501
333.11705
333.10761
333.09547
333.07577
333.1498
333.14974
333.14959
333.14929
333.14871
333.14758
333.14549
333.14207
333.1373
333.13141
333.12455
333.11665
333.1073
333.09525
333.07568
333.14978
333.14972
333.14956
333.14923
333.1486
333.14738
333.14516
333.14162
333.1368
333.13091
333.12409
333.11626
333.10699
333.09504
333.0756
333.14976
333.14969
333.14952
333.14917
333.14848
333.14717
333.14482
333.14117
333.1363
333.13042
333.12365
333.11588
333.10669
333.09483
333.07551
333.14974
333.14967
333.14948
333.14909
333.14835
333.14694
333.14446
333.14071
333.1358
333.12994
333.12321
333.11552
333.1064
333.09463
333.07543
333.14972
333.14964
333.14943
333.14902
333.14821
333.14669
333.14409
333.14025
333.13531
333.12946
333.12278
333.11515
333.10612
333.09443
333.07535
333.14969
333.14961
333.14938
333.14893
333.14806
333.14643
333.14371
333.13979
333.13483
333.129
333.12237
333.1148
333.10584
333.09424
333.07528
333.14966
333.14957
333.14933
333.14884
333.14789
333.14616
333.14333
333.13933
333.13435
333.12854
333.12196
333.11446
333.10556
333.09405
333.0752
333.14963
333.14953
333.14927
333.14874
333.14771
333.14587
333.14293
333.13887
333.13387
333.12809
333.12156
333.11412
333.1053
333.09386
333.07513
333.1496
333.14949
333.1492
333.14863
333.14752
333.14557
333.14253
333.13841
333.13341
333.12765
333.12117
333.11379
333.10504
333.09368
333.07506
333.14957
333.14945
333.14913
333.14851
333.14732
333.14526
333.14212
333.13795
333.13295
333.12722
333.12079
333.11347
333.10478
333.09351
333.07499
333.14953
333.1494
333.14906
333.14838
333.1471
333.14493
333.1417
333.13749
333.13249
333.1268
333.12041
333.11315
333.10453
333.09333
333.07492
333.14949
333.14934
333.14897
333.14824
333.14687
333.1446
333.14128
333.13704
333.13204
333.12638
333.12004
333.11284
333.10429
333.09316
333.07485
333.14944
333.14928
333.14888
333.14809
333.14663
333.14425
333.14086
333.13659
333.1316
333.12598
333.11968
333.11254
333.10405
333.093
333.07478
333.14939
333.14922
333.14878
333.14792
333.14637
333.14389
333.14044
333.13614
333.13117
333.12557
333.11933
333.11224
333.10381
333.09283
333.07472
333.14933
333.14915
333.14868
333.14775
333.1461
333.14352
333.14001
333.1357
333.13074
333.12518
333.11898
333.11195
333.10358
333.09267
333.07465
333.14927
333.14907
333.14856
333.14756
333.14582
333.14315
333.13958
333.13526
333.13031
333.12479
333.11864
333.11166
333.10336
333.09251
333.07459
333.1492
333.14899
333.14843
333.14736
333.14552
333.14277
333.13916
333.13482
333.1299
333.12441
333.11831
333.11138
333.10313
333.09236
333.07452
333.14913
333.14889
333.14829
333.14714
333.14521
333.14238
333.13873
333.13439
333.12948
333.12403
333.11798
333.1111
333.10292
333.09221
333.07446
333.14905
333.14879
333.14814
333.14691
333.14489
333.14199
333.1383
333.13397
333.12908
333.12366
333.11765
333.11083
333.1027
333.09206
333.0744
333.14896
333.14868
333.14798
333.14667
333.14456
333.1416
333.13788
333.13354
333.12868
333.1233
333.11733
333.11056
333.10249
333.09191
333.07434
333.14886
333.14856
333.14781
333.14642
333.14422
333.1412
333.13745
333.13312
333.12828
333.12294
333.11702
333.1103
333.10228
333.09176
333.07427
333.14875
333.14843
333.14762
333.14615
333.14387
333.14079
333.13703
333.13271
333.1279
333.12259
333.11671
333.11004
333.10208
333.09162
333.07421
333.14864
333.14829
333.14742
333.14587
333.14351
333.14039
333.13661
333.1323
333.12751
333.12225
333.11641
333.10979
333.10188
333.09147
333.07415
333.14851
333.14813
333.1472
333.14557
333.14315
333.13998
333.1362
333.13189
333.12713
333.1219
333.11611
333.10954
333.10168
333.09133
333.07409
333.14837
333.14796
333.14697
333.14526
333.14278
333.13957
333.13578
333.13149
333.12676
333.12157
333.11582
333.10929
333.10148
333.09119
333.07403
333.14821
333.14778
333.14672
333.14494
333.1424
333.13917
333.13537
333.1311
333.12639
333.12124
333.11553
333.10905
333.10129
333.09106
333.07397
333.14804
333.14758
333.14646
333.14461
333.14201
333.13876
333.13496
333.1307
333.12603
333.12091
333.11525
333.10881
333.1011
333.09092
333.07391
333.14786
333.14736
333.14619
333.14427
333.14163
333.13835
333.13455
333.13031
333.12567
333.12059
333.11497
333.10857
333.10091
333.09079
333.07385
333.14766
333.14713
333.1459
333.14392
333.14123
333.13794
333.13414
333.12993
333.12532
333.12027
333.11469
333.10834
333.10072
333.09065
333.07379
333.14744
333.14688
333.1456
333.14356
333.14084
333.13753
333.13374
333.12955
333.12497
333.11996
333.11442
333.10811
333.10054
333.09052
333.07373
333.1472
333.14662
333.14528
333.1432
333.14044
333.13712
333.13334
333.12917
333.12462
333.11965
333.11415
333.10788
333.10035
333.09039
333.07366
333.14694
333.14633
333.14495
333.14282
333.14003
333.13671
333.13295
333.1288
333.12428
333.11935
333.11388
333.10766
333.10017
333.09026
333.0736
333.14667
333.14603
333.1446
333.14243
333.13963
333.1363
333.13255
333.12843
333.12394
333.11905
333.11362
333.10744
333.1
333.09013
333.07354
333.14637
333.14571
333.14424
333.14204
333.13922
333.1359
333.13216
333.12807
333.12361
333.11875
333.11336
333.10722
333.09982
333.09
333.07348
333.14606
333.14538
333.14387
333.14164
333.13881
333.13549
333.13178
333.12771
333.12328
333.11845
333.11311
333.107
333.09964
333.08987
333.07341
333.14573
333.14503
333.14349
333.14124
333.1384
333.13509
333.13139
333.12735
333.12296
333.11816
333.11285
333.10679
333.09947
333.08975
333.07335
333.14537
333.14466
333.1431
333.14083
333.13799
333.13469
333.13101
333.127
333.12264
333.11788
333.1126
333.10657
333.0993
333.08962
333.07329
333.145
333.14427
333.1427
333.14042
333.13757
333.13429
333.13063
333.12665
333.12232
333.11759
333.11235
333.10636
333.09913
333.08949
333.07322
333.14461
333.14387
333.14228
333.14
333.13716
333.13389
333.13026
333.1263
333.122
333.11731
333.11211
333.10615
333.09896
333.08937
333.07316
333.1442
333.14345
333.14186
333.13957
333.13674
333.13349
333.12988
333.12595
333.12169
333.11703
333.11187
333.10595
333.09879
333.08924
333.07309
333.14377
333.14302
333.14143
333.13914
333.13633
333.13309
333.12951
333.12561
333.12138
333.11676
333.11163
333.10574
333.09863
333.08912
333.07302
333.14333
333.14258
333.14099
333.13871
333.13591
333.1327
333.12915
333.12528
333.12107
333.11649
333.11139
333.10554
333.09846
333.08899
333.07295
333.14288
333.14213
333.14054
333.13828
333.13549
333.13231
333.12878
333.12494
333.12077
333.11622
333.11115
333.10534
333.09829
333.08887
333.07289
333.14241
333.14167
333.14008
333.13784
333.13508
333.13191
333.12842
333.12461
333.12047
333.11595
333.11092
333.10514
333.09813
333.08875
333.07282
333.14193
333.14119
333.13962
333.1374
333.13466
333.13152
333.12805
333.12428
333.12017
333.11568
333.11068
333.10494
333.09797
333.08862
333.07275
333.14144
333.14071
333.13916
333.13695
333.13424
333.13113
333.12769
333.12395
333.11988
333.11542
333.11045
333.10474
333.0978
333.0885
333.07267
333.14094
333.14022
333.13869
333.1365
333.13382
333.13074
333.12734
333.12362
333.11958
333.11516
333.11022
333.10455
333.09764
333.08837
333.0726
333.14044
333.13973
333.13821
333.13606
333.1334
333.13036
333.12698
333.1233
333.11929
333.1149
333.11
333.10435
333.09748
333.08825
333.07253
333.13993
333.13922
333.13773
333.13561
333.13298
333.12997
333.12663
333.12298
333.119
333.11464
333.10977
333.10416
333.09732
333.08813
333.07245
333.13941
333.13872
333.13725
333.13516
333.13257
333.12958
333.12627
333.12265
333.11871
333.11438
333.10954
333.10396
333.09716
333.088
333.07238
333.13889
333.13821
333.13677
333.1347
333.13215
333.1292
333.12592
333.12234
333.11842
333.11413
333.10932
333.10377
333.097
333.08788
333.0723
333.13836
333.1377
333.13628
333.13425
333.13173
333.12882
333.12557
333.12202
333.11814
333.11387
333.1091
333.10358
333.09684
333.08775
333.07222
333.13784
333.13719
333.13579
333.1338
333.13131
333.12843
333.12522
333.1217
333.11786
333.11362
333.10888
333.10339
333.09668
333.08763
333.07214
333.13731
333.13667
333.13531
333.13334
333.13089
333.12805
333.12488
333.12139
333.11757
333.11337
333.10866
333.1032
333.09652
333.0875
333.07206
333.13678
333.13616
333.13482
333.13289
333.13048
333.12767
333.12453
333.12108
333.11729
333.11312
333.10844
333.10301
333.09636
333.08737
333.07198
333.13626
333.13564
333.13433
333.13244
333.13006
333.12729
333.12419
333.12077
333.11701
333.11287
333.10822
333.10282
333.0962
333.08725
333.0719
333.13573
333.13513
333.13384
333.13198
333.12964
333.12691
333.12384
333.12046
333.11674
333.11262
333.108
333.10263
333.09604
333.08712
333.07181
333.1352
333.13462
333.13336
333.13153
333.12923
333.12653
333.1235
333.12015
333.11646
333.11238
333.10778
333.10244
333.09588
333.08699
333.07173
333.13468
333.13411
333.13288
333.13108
333.12882
333.12616
333.12316
333.11984
333.11618
333.11213
333.10756
333.10225
333.09572
333.08686
333.07164
333.13416
333.1336
333.13239
333.13063
333.1284
333.12578
333.12282
333.11953
333.11591
333.11188
333.10735
333.10206
333.09556
333.08673
333.07155
333.13364
333.1331
333.13191
333.13019
333.12799
333.12541
333.12248
333.11923
333.11563
333.11164
333.10713
333.10187
333.0954
333.0866
333.07146
333.13313
333.13259
333.13144
333.12974
333.12758
333.12504
333.12214
333.11892
333.11536
333.11139
333.10691
333.10168
333.09524
333.08647
333.07136
333.13262
333.13209
333.13096
333.1293
333.12718
333.12466
333.1218
333.11862
333.11508
333.11115
333.1067
333.10149
333.09508
333.08633
333.07127
333.13211
333.1316
333.13049
333.12886
333.12677
333.12429
333.12147
333.11831
333.11481
333.11091
333.10648
333.1013
333.09491
333.0862
333.07117
333.13161
333.13111
333.13002
333.12842
333.12637
333.12392
333.12113
333.11801
333.11454
333.11066
333.10626
333.10111
333.09475
333.08607
333.07107
333.13111
333.13062
333.12955
333.12798
333.12597
333.12356
333.1208
333.11771
333.11427
333.11042
333.10605
333.10092
333.09458
333.08593
333.07097
333.13062
333.13014
333.12909
333.12755
333.12557
333.12319
333.12047
333.11741
333.114
333.11018
333.10583
333.10073
333.09442
333.08579
333.07087
333.13013
333.12966
333.12863
333.12712
333.12517
333.12283
333.12014
333.11711
333.11373
333.10993
333.10562
333.10054
333.09425
333.08565
333.07076
333.12964
333.12918
333.12818
333.12669
333.12477
333.12247
333.11981
333.11681
333.11346
333.10969
333.1054
333.10035
333.09409
333.08551
333.07065
333.12917
333.12871
333.12773
333.12627
333.12438
333.1221
333.11948
333.11651
333.11319
333.10945
333.10518
333.10016
333.09392
333.08537
333.07054
333.12869
333.12825
333.12728
333.12585
333.12399
333.12175
333.11915
333.11621
333.11292
333.10921
333.10497
333.09997
333.09375
333.08522
333.07043
333.12822
333.12779
333.12684
333.12543
333.1236
333.12139
333.11882
333.11592
333.11265
333.10897
333.10475
333.09977
333.09358
333.08508
333.07032
333.12776
333.12733
333.1264
333.12502
333.12322
333.12103
333.1185
333.11562
333.11238
333.10872
333.10453
333.09958
333.09341
333.08493
333.0702
333.1273
333.12688
333.12597
333.12461
333.12283
333.12068
333.11817
333.11533
333.11211
333.10848
333.10431
333.09939
333.09324
333.08478
333.07008
333.12684
333.12643
333.12554
333.1242
333.12245
333.12033
333.11785
333.11503
333.11185
333.10824
333.1041
333.09919
333.09307
333.08463
333.06996
333.12639
333.12599
333.12511
333.1238
333.12207
333.11998
333.11753
333.11474
333.11158
333.108
333.10388
333.09899
333.09289
333.08448
333.06984
333.12595
333.12555
333.12469
333.12339
333.1217
333.11963
333.11721
333.11445
333.11131
333.10776
333.10366
333.0988
333.09272
333.08433
333.06971
333.12551
333.12512
333.12427
333.123
333.12133
333.11929
333.11689
333.11415
333.11105
333.10751
333.10344
333.0986
333.09254
333.08417
333.06959
333.12507
333.12469
333.12386
333.1226
333.12096
333.11894
333.11658
333.11386
333.11078
333.10727
333.10322
333.0984
333.09236
333.08402
333.06946
333.12464
333.12427
333.12345
333.12221
333.12059
333.1186
333.11626
333.11358
333.11052
333.10703
333.103
333.0982
333.09218
333.08386
333.06932
333.12422
333.12385
333.12304
333.12183
333.12023
333.11826
333.11595
333.11329
333.11025
333.10679
333.10278
333.098
333.092
333.0837
333.06919
333.1238
333.12343
333.12264
333.12144
333.11987
333.11793
333.11564
333.113
333.10999
333.10655
333.10256
333.0978
333.09182
333.08353
333.06905
333.12338
333.12303
333.12224
333.12107
333.11951
333.11759
333.11533
333.11271
333.10972
333.10631
333.10234
333.0976
333.09164
333.08337
333.06891
333.12297
333.12262
333.12185
333.12069
333.11915
333.11726
333.11502
333.11243
333.10946
333.10606
333.10212
333.0974
333.09145
333.08321
333.06877
333.12256
333.12222
333.12146
333.12032
333.1188
333.11693
333.11471
333.11214
333.1092
333.10582
333.10189
333.09719
333.09127
333.08304
333.06862
333.12216
333.12182
333.12108
333.11995
333.11845
333.1166
333.11441
333.11186
333.10894
333.10558
333.10167
333.09699
333.09108
333.08287
333.06847
333.12177
333.12143
333.12069
333.11958
333.1181
333.11628
333.1141
333.11158
333.10868
333.10534
333.10145
333.09678
333.09089
333.0827
333.06833
333.12137
333.12104
333.12032
333.11922
333.11776
333.11595
333.1138
333.11129
333.10841
333.1051
333.10123
333.09658
333.0907
333.08253
333.06817
333.12098
333.12066
333.11994
333.11886
333.11742
333.11563
333.1135
333.11101
333.10815
333.10485
333.101
333.09637
333.09051
333.08235
333.06802
333.1206
333.12028
333.11957
333.1185
333.11708
333.11531
333.1132
333.11073
333.10789
333.10461
333.10078
333.09616
333.09032
333.08217
333.06786
333.12022
333.1199
333.11921
333.11815
333.11674
333.11499
333.1129
333.11045
333.10763
333.10437
333.10055
333.09595
333.09013
333.082
333.0677
333.11984
333.11953
333.11884
333.1178
333.11641
333.11468
333.1126
333.11018
333.10737
333.10413
333.10033
333.09575
333.08993
333.08182
333.06754
333.11947
333.11916
333.11849
333.11746
333.11608
333.11436
333.11231
333.1099
333.10711
333.10389
333.1001
333.09553
333.08974
333.08164
333.06738
333.11911
333.1188
333.11813
333.11711
333.11575
333.11405
333.11201
333.10962
333.10686
333.10365
333.09988
333.09532
333.08954
333.08145
333.06722
333.11874
333.11844
333.11778
333.11677
333.11542
333.11374
333.11172
333.10935
333.1066
333.1034
333.09965
333.09511
333.08934
333.08127
333.06705
333.11838
333.11808
333.11743
333.11643
333.1151
333.11343
333.11143
333.10907
333.10634
333.10316
333.09942
333.0949
333.08914
333.08108
333.06688
333.11802
333.11773
333.11708
333.1161
333.11478
333.11313
333.11114
333.1088
333.10608
333.10292
333.0992
333.09468
333.08894
333.08089
333.06671
333.11767
333.11738
333.11674
333.11577
333.11446
333.11282
333.11085
333.10853
333.10583
333.10268
333.09897
333.09447
333.08874
333.08071
333.06653
333.11732
333.11703
333.1164
333.11544
333.11414
333.11252
333.11056
333.10826
333.10557
333.10244
333.09874
333.09425
333.08853
333.08052
333.06636
333.11698
333.11669
333.11607
333.11511
333.11383
333.11222
333.11028
333.10799
333.10531
333.1022
333.09851
333.09404
333.08833
333.08032
333.06618
333.11663
333.11635
333.11573
333.11479
333.11352
333.11192
333.10999
333.10772
333.10506
333.10195
333.09828
333.09382
333.08813
333.08013
333.066
333.11629
333.11602
333.1154
333.11447
333.11321
333.11163
333.10971
333.10745
333.1048
333.10171
333.09805
333.0936
333.08792
333.07993
333.06582
333.11596
333.11568
333.11508
333.11415
333.1129
333.11133
333.10943
333.10718
333.10455
333.10147
333.09782
333.09339
333.08771
333.07974
333.06564
333.11562
333.11535
333.11475
333.11383
333.1126
333.11104
333.10915
333.10691
333.1043
333.10123
333.09759
333.09317
333.0875
333.07954
333.06545
333.11529
333.11503
333.11443
333.11352
333.11229
333.11075
333.10887
333.10665
333.10404
333.10099
333.09736
333.09295
333.08729
333.07934
333.06527
333.11497
333.1147
333.11411
333.11321
333.11199
333.11046
333.10859
333.10638
333.10379
333.10074
333.09713
333.09273
333.08708
333.07914
333.06508
333.11464
333.11438
333.11379
333.1129
333.11169
333.11017
333.10832
333.10612
333.10354
333.1005
333.0969
333.09251
333.08687
333.07894
333.06489
333.11432
333.11406
333.11348
333.11259
333.1114
333.10988
333.10804
333.10585
333.10328
333.10026
333.09667
333.09228
333.08666
333.07874
333.0647
333.114
333.11374
333.11317
333.11229
333.1111
333.1096
333.10777
333.10559
333.10303
333.10002
333.09644
333.09206
333.08645
333.07853
333.06451
333.11369
333.11343
333.11286
333.11199
333.11081
333.10931
333.10749
333.10533
333.10278
333.09978
333.09621
333.09184
333.08623
333.07833
333.06431
333.11337
333.11312
333.11255
333.11169
333.11051
333.10903
333.10722
333.10507
333.10253
333.09954
333.09597
333.09162
333.08602
333.07812
333.06412
333.11306
333.11281
333.11225
333.11139
333.11023
333.10875
333.10695
333.10481
333.10228
333.09929
333.09574
333.09139
333.0858
333.07791
333.06392
333.11276
333.1125
333.11195
333.11109
333.10994
333.10847
333.10668
333.10454
333.10203
333.09905
333.09551
333.09117
333.08558
333.0777
333.06372
333.11245
333.1122
333.11165
333.1108
333.10965
333.10819
333.10641
333.10428
333.10177
333.09881
333.09527
333.09094
333.08536
333.07749
333.06352
333.11215
333.1119
333.11135
333.11051
333.10937
333.10791
333.10614
333.10403
333.10152
333.09857
333.09504
333.09071
333.08515
333.07728
333.06332
333.11185
333.1116
333.11105
333.11022
333.10908
333.10764
333.10588
333.10377
333.10127
333.09833
333.09481
333.09049
333.08493
333.07707
333.06312
333.11155
333.1113
333.11076
333.10993
333.1088
333.10737
333.10561
333.10351
333.10102
333.09809
333.09457
333.09026
333.08471
333.07686
333.06292
333.11125
333.11101
333.11047
333.10964
333.10852
333.10709
333.10534
333.10325
333.10078
333.09784
333.09434
333.09003
333.08449
333.07664
333.06271
333.11096
333.11071
333.11018
333.10936
333.10824
333.10682
333.10508
333.103
333.10053
333.0976
333.0941
333.08981
333.08426
333.07643
333.06251
333.11066
333.11042
333.10989
333.10907
333.10796
333.10655
333.10482
333.10274
333.10028
333.09736
333.09387
333.08958
333.08404
333.07622
333.0623
333.11037
333.11013
333.1096
333.10879
333.10769
333.10628
333.10455
333.10248
333.10003
333.09712
333.09363
333.08935
333.08382
333.076
333.06209
333.11008
333.10985
333.10932
333.10851
333.10741
333.10601
333.10429
333.10223
333.09978
333.09688
333.0934
333.08912
333.0836
333.07578
333.06188
333.1098
333.10956
333.10904
333.10823
333.10714
333.10574
333.10403
333.10197
333.09953
333.09664
333.09316
333.08889
333.08337
333.07556
333.06167
333.10951
333.10928
333.10876
333.10796
333.10687
333.10548
333.10377
333.10172
333.09928
333.09639
333.09293
333.08866
333.08315
333.07535
333.06146
333.10923
333.10899
333.10848
333.10768
333.1066
333.10521
333.10351
333.10147
333.09904
333.09615
333.09269
333.08843
333.08292
333.07513
333.06125
333.10895
333.10871
333.1082
333.1074
333.10633
333.10495
333.10325
333.10121
333.09879
333.09591
333.09245
333.0882
333.0827
333.07491
333.06104
333.10866
333.10843
333.10792
333.10713
333.10606
333.10468
333.10299
333.10096
333.09854
333.09567
333.09222
333.08797
333.08247
333.07469
333.06082
333.10839
333.10816
333.10765
333.10686
333.10579
333.10442
333.10274
333.10071
333.0983
333.09543
333.09198
333.08773
333.08224
333.07446
333.06061
333.10811
333.10788
333.10737
333.10659
333.10552
333.10416
333.10248
333.10046
333.09805
333.09519
333.09174
333.0875
333.08202
333.07424
333.06039
333.10783
333.10761
333.1071
333.10632
333.10526
333.1039
333.10222
333.1002
333.0978
333.09494
333.09151
333.08727
333.08179
333.07402
333.06018
333.10756
333.10733
333.10683
333.10605
333.10499
333.10364
333.10197
333.09995
333.09756
333.0947
333.09127
333.08704
333.08156
333.0738
333.05996
333.10729
333.10706
333.10656
333.10578
333.10473
333.10338
333.10171
333.0997
333.09731
333.09446
333.09103
333.0868
333.08133
333.07357
333.05974
333.10701
333.10679
333.10629
333.10552
333.10447
333.10312
333.10146
333.09945
333.09706
333.09422
333.09079
333.08657
333.0811
333.07335
333.05952
333.10674
333.10652
333.10602
333.10525
333.1042
333.10286
333.1012
333.0992
333.09682
333.09398
333.09056
333.08634
333.08087
333.07312
333.0593
333.10648
333.10625
333.10576
333.10499
333.10394
333.1026
333.10095
333.09895
333.09657
333.09374
333.09032
333.0861
333.08064
333.0729
333.05908
333.10621
333.10598
333.10549
333.10473
333.10368
333.10235
333.1007
333.0987
333.09633
333.09349
333.09008
333.08587
333.08041
333.07267
333.05886
333.10594
333.10572
333.10523
333.10446
333.10342
333.10209
333.10044
333.09845
333.09608
333.09325
333.08984
333.08563
333.08018
333.07245
333.05864
333.10568