/*--------------------------------*- C++ -*----------------------------------*\
| =========                 |                                                 |
| \\      /  F ield         | OpenFOAM: The Open Source CFD Toolbox           |
|  \\    /   O peration     | Version:  2506                                  |
|   \\  /    A nd           | Website:  www.openfoam.com                      |
|    \\/     M anipulation  |                                                 |
\*---------------------------------------------------------------------------*/
FoamFile
{
    version     2.0;
    format      ascii;
    arch        "LSB;label=32;scalar=64";
    class       volVectorField;
    location    "8000/water";
    object      U;
}
// * * * * * * * * * * * * * * * * * * * * * * * * * * * * * * * * * * * * * //

dimensions      [0 1 -1 0 0 0 0];

internalField   nonuniform List<vector> 
6000
(
(0.25028648 -3.4193492e-05 -3.5275052e-19)
(0.25028875 -7.4648811e-05 -5.0506932e-18)
(0.25029344 -0.00011804414 -7.6057211e-19)
(0.25030059 -0.00016540046 -4.1744192e-19)
(0.25031046 -0.00021487336 -1.128872e-19)
(0.25032332 -0.00026685039 -4.0495632e-19)
(0.25033948 -0.00032192175 -1.2854633e-19)
(0.25035939 -0.00038078672 9.6564507e-20)
(0.25038356 -0.00044434477 4.7146155e-20)
(0.25041254 -0.00051362452 2.8425245e-19)
(0.25044587 -0.00058677559 1.1691459e-19)
(0.25047643 -0.00065822056 9.0933826e-20)
(0.25046276 -0.00078466513 -4.2040286e-20)
(0.25013031 -0.0015987837 1.3345782e-19)
(0.24584996 0.0019968142 -9.33854e-20)
(0.25104035 -3.7261303e-05 -1.2429512e-18)
(0.25104514 -8.9895978e-05 -2.5793595e-18)
(0.2510558 -0.00014352114 -6.0081158e-19)
(0.25107219 -0.00020025423 -8.3344638e-19)
(0.2510947 -0.0002571822 3.69741e-19)
(0.25112368 -0.0003144057 -2.3152545e-19)
(0.25115965 -0.00037188242 2.1808797e-19)
(0.25120324 -0.00042947839 3.4351008e-23)
(0.2512551 -0.00048709454 -1.9222074e-19)
(0.25131538 -0.00054561245 7.8715392e-20)
(0.25138039 -0.00060405492 -1.5479611e-20)
(0.25142587 -0.00063755821 -8.2937984e-21)
(0.25133175 -0.00059164843 -1.0714334e-19)
(0.25037931 -0.0014370973 1.5357821e-19)
(0.24194277 0.00099520264 -2.6285406e-20)
(0.25195051 -3.6589028e-05 -4.4082022e-18)
(0.25195563 -9.0250612e-05 4.1044601e-18)
(0.25196731 -0.00014313024 1.1550906e-18)
(0.25198528 -0.00019912655 -9.1908168e-19)
(0.25200977 -0.00025508716 8.456604e-20)
(0.25204101 -0.00031125579 -5.6731356e-19)
(0.25207932 -0.00036762123 -3.3754599e-19)
(0.25212505 -0.00042413945 -6.4879186e-19)
(0.25217823 -0.00048056786 -8.2640396e-19)
(0.25223708 -0.0005377572 -2.5961074e-19)
(0.25229114 -0.00060007155 -5.5415089e-19)
(0.25229033 -0.00065419842 -6.0768082e-19)
(0.25200573 -0.00054460881 -4.4731043e-19)
(0.25014357 -0.0012195308 -2.153755e-19)
(0.23758495 0.00043820543 -1.6953198e-19)
(0.25283353 -3.7446603e-05 1.9611782e-18)
(0.25283867 -9.3611087e-05 1.6484397e-18)
(0.25285018 -0.00014906891 1.1183098e-18)
(0.25286783 -0.00020791578 3.6682612e-19)
(0.25289182 -0.00026672308 6.192556e-19)
(0.25292238 -0.00032582165 -2.6512301e-19)
(0.25295982 -0.00038519269 -8.3662045e-19)
(0.25300432 -0.00044485276 -6.2689574e-19)
(0.25305525 -0.00050441426 -6.4918462e-19)
(0.25310809 -0.00056332944 2.0644066e-19)
(0.25314261 -0.00062607506 -3.6980099e-19)
(0.25307635 -0.00069910336 -5.4799011e-19)
(0.25255493 -0.0005845712 -4.1587522e-19)
(0.24963188 -0.001063787 -2.5459587e-19)
(0.23320285 0.0001058672 -1.7472838e-19)
(0.25372643 -3.8342943e-05 1.2371739e-17)
(0.2537317 -9.636869e-05 3.2907168e-18)
(0.25374347 -0.0001537284 1.3101005e-18)
(0.25376156 -0.00021453144 1.0001099e-18)
(0.25378616 -0.00027516439 8.6370513e-19)
(0.25381749 -0.00033599427 5.8671974e-19)
(0.25385581 -0.00039694563 -3.2689978e-19)
(0.25390101 -0.00045805575 -2.3244937e-19)
(0.25395133 -0.00051907431 -7.6914406e-20)
(0.25399821 -0.00057855465 -2.9377302e-21)
(0.25400834 -0.00063773998 1.607397e-19)
(0.25386022 -0.0007177221 1.1070876e-19)
(0.25305737 -0.00062191547 -9.7171312e-20)
(0.24895451 -0.00093835859 -3.5796214e-20)
(0.22897365 -8.3792336e-05 6.8591335e-20)
(0.25464474 -3.8661619e-05 6.0924173e-19)
(0.25465014 -9.7320118e-05 -8.8802675e-19)
(0.2546622 -0.00015516461 8.9994068e-19)
(0.25468073 -0.00021648308 1.8523062e-19)
(0.2547059 -0.00027758564 -4.8907654e-19)
(0.25473792 -0.000338881 2.6719918e-19)
(0.25477689 -0.00040025681 6.718684e-20)
(0.25482222 -0.00046172799 1.8269797e-20)
(0.25487049 -0.00052322807 2.5478084e-19)
(0.2549078 -0.000583188 -2.7354561e-20)
(0.25488519 -0.00063896641 8.1360985e-20)
(0.25463685 -0.00071821651 1.1780373e-19)
(0.25350729 -0.0006469875 -1.6849677e-19)
(0.248129 -0.00083894718 -4.2809631e-20)
(0.2249409 -0.00018589273 9.2251494e-21)
(0.25557031 -3.8595292e-05 -4.2414398e-18)
(0.25557581 -9.7309345e-05 -3.9712694e-18)
(0.25558805 -0.00015511982 -8.6223402e-19)
(0.25560682 -0.00021642526 2.5460843e-19)
(0.2556323 -0.00027749359 -1.4544234e-18)
(0.25566463 -0.00033876345 2.9922165e-19)
(0.25570371 -0.00040009734 4.4625821e-19)
(0.25574825 -0.00046144626 3.105211e-19)
(0.25579256 -0.00052279714 3.2685785e-19)
(0.25581623 -0.0005828814 1.9542188e-19)
(0.25575267 -0.00063600477 -3.0142886e-20)
(0.25538743 -0.00071016267 8.4024973e-20)
(0.25388915 -0.00066107344 -7.1450754e-20)
(0.24716598 -0.00076077854 1.0515698e-21)
(0.22112141 -0.00023459296 -1.1097619e-20)
(0.25649134 -3.8297106e-05 1.5865812e-18)
(0.25649692 -9.6712127e-05 3.769028e-19)
(0.25650928 -0.00015419069 5.0553808e-19)
(0.25652824 -0.00021515485 3.4702553e-19)
(0.25655393 -0.00027585718 -9.4088256e-19)
(0.25658641 -0.0003367553 2.1497663e-19)
(0.25662528 -0.00039769653 4.3343616e-19)
(0.2566683 -0.0004585644 1.5433428e-19)
(0.25670691 -0.00051927104 -1.3937955e-19)
(0.25671305 -0.00057893859 -1.144844e-19)
(0.25660095 -0.00063003278 4.700398e-20)
(0.25610359 -0.00069722485 8.1565362e-20)
(0.25419746 -0.00066519719 4.6258877e-20)
(0.24608527 -0.00069788903 -5.5904678e-20)
(0.21752738 -0.00025081847 1.6179402e-20)
(0.25740382 -3.7852858e-05 -3.240078e-18)
(0.25740947 -9.5689492e-05 -2.898334e-18)
(0.25742193 -0.00015257331 1.0720026e-20)
(0.25744104 -0.00021291358 7.090774e-19)
(0.25746687 -0.0002729729 4.4599066e-19)
(0.25749936 -0.0003332193 9.7479993e-20)
(0.2575377 -0.00039348924 3.5783946e-19)
(0.2575784 -0.00045361301 1.760239e-19)
(0.25760945 -0.00051335259 -5.2064549e-20)
(0.25759421 -0.00057212213 1.8584048e-19)
(0.25742635 -0.00062159363 8.1692299e-20)
(0.25678237 -0.00068144217 7.966202e-20)
(0.25443121 -0.00066103685 1.3998139e-20)
(0.24490935 -0.00064561644 -1.1838046e-19)
(0.21416513 -0.00024776584 6.9916096e-20)
(0.25830515 -3.7308637e-05 8.5687426e-19)
(0.25831084 -9.4372767e-05 -2.1061609e-18)
(0.25832339 -0.00015047648 -1.6658598e-18)
(0.2583426 -0.00020999612 7.0469181e-19)
(0.25836849 -0.00026922145 -3.7940698e-19)
(0.25840083 -0.00032862339 -2.7166218e-19)
(0.25843826 -0.00038802594 2.8651508e-19)
(0.25847573 -0.00044722017 2.6114929e-19)
(0.25849727 -0.00050579278 3.6215768e-19)
(0.25845683 -0.00056328987 2.0561583e-19)
(0.25822634 -0.00061131675 1.5441889e-20)
(0.25742154 -0.00066417742 1.2221308e-19)
(0.2545896 -0.00065044234 -1.7521244e-20)
(0.24365871 -0.00060064453 -7.6949646e-20)
(0.21103455 -0.00023378679 5.8927015e-20)
(0.259193 -3.6693879e-05 5.9990908e-18)
(0.25919873 -9.2857458e-05 5.4534873e-18)
(0.25921134 -0.00014806165 -2.0443098e-18)
(0.25923061 -0.00020663289 3.6479681e-20)
(0.25925648 -0.0002648995 5.7764796e-19)
(0.25928848 -0.00032332972 -1.9844463e-20)
(0.25932457 -0.00038173097 2.4871667e-19)
(0.25935785 -0.00043986308 2.6102266e-19)
(0.25936788 -0.00049714489 7.8543839e-20)
(0.25929853 -0.00055310431 -1.6561754e-19)
(0.2589988 -0.00059970361 6.766959e-20)
(0.25801896 -0.00064623361 -9.1507426e-20)
(0.25467145 -0.00063499349 -6.3908976e-20)
(0.24235144 -0.00056062195 -2.0542967e-20)
(0.20813123 -0.0002141088 -8.7635513e-21)
(0.26006576 -3.6034054e-05 5.1046915e-18)
(0.26007152 -9.1214283e-05 4.8067191e-18)
(0.26008417 -0.00014544281 -6.0213748e-19)
(0.26010346 -0.00020298347 -5.0565819e-19)
(0.26012923 -0.00026021093 6.4177774e-19)
(0.2601607 -0.00031758689 3.5726455e-19)
(0.26019497 -0.00037489796 1.2747126e-19)
(0.26022303 -0.0004318747 9.698952e-20)
(0.26021952 -0.00048779066 2.4124105e-21)
(0.26011767 -0.00054204301 -3.7002891e-20)
(0.25974224 -0.00058714002 7.0622382e-20)
(0.25857279 -0.00062806077 9.7262993e-21)
(0.25467557 -0.00061594005 -6.8963538e-20)
(0.24100379 -0.00052390611 -1.7966469e-20)
(0.20544863 -0.00019196316 8.6215933e-20)
(0.2609225 -3.5349632e-05 4.1028125e-18)
(0.26092828 -8.9497284e-05 4.6829366e-18)
(0.26094096 -0.0001427054 4.8781309e-19)
(0.26096023 -0.00019916671 -2.708822e-19)
(0.2609858 -0.00025530722 4.534825e-19)
(0.2610165 -0.00031157921 5.5396231e-19)
(0.26104844 -0.00036774516 2.3062513e-19)
(0.2610702 -0.00042350433 1.0420443e-19)
(0.26105114 -0.00047801113 1.3633619e-19)
(0.26091327 -0.00053046085 -1.2776528e-19)
(0.2604557 -0.00057393661 1.7950669e-19)
(0.2590814 -0.00060990566 1.0561519e-19)
(0.2546009 -0.00059424331 -5.5893264e-20)
(0.23963056 -0.00048937354 -3.8482493e-20)
(0.20297926 -0.00016931833 9.8618809e-20)
(0.26176274 -3.4655537e-05 3.5592157e-18)
(0.26176854 -8.7746853e-05 4.6426182e-18)
(0.26178122 -0.00013991377 -5.8521617e-19)
(0.26180042 -0.00019527246 3.3188229e-19)
(0.26182568 -0.00025030305 7.1410965e-19)
(0.26185536 -0.00030544607 3.0990367e-19)
(0.26188442 -0.00036043768 1.6584992e-19)
(0.26189878 -0.00041494196 1.5392811e-19)
(0.26186213 -0.00046801762 1.0029411e-19)
(0.2616848 -0.00051862213 -1.0474624e-19)
(0.26113855 -0.00056034346 2.3774512e-19)
(0.25954316 -0.00059189152 -2.9215049e-20)
(0.25444651 -0.0005706321 -4.6507007e-20)
(0.23824529 -0.00045627776 1.9019242e-20)
(0.20071509 -0.00014735259 -2.2181604e-20)
(0.26258633 -3.396306e-05 5.0437231e-18)
(0.26259213 -8.599378e-05 6.8481602e-19)
(0.26260479 -0.00013711719 2.9477143e-18)
(0.26262388 -0.00019136968 1.6478784e-19)
(0.2626487 -0.00024528655 -8.0038463e-19)
(0.26267708 -0.00029929459 1.1790058e-19)
(0.26270267 -0.00035310243 -7.6945488e-20)
(0.26270848 -0.00040633486 2.0726884e-19)
(0.26265224 -0.00045797299 3.2115389e-20)
(0.26243199 -0.00050672605 -7.1444387e-20)
(0.26179026 -0.00054656345 1.3127036e-19)
(0.25995633 -0.0005740675 4.4488564e-20)
(0.25421177 -0.00054566294 -1.5319342e-20)
(0.23686047 -0.00042415213 1.0284191e-19)
(0.19864765 -0.00012675759 -5.9390677e-20)
(0.26339335 -3.32814e-05 2.9906295e-18)
(0.26339915 -8.426274e-05 2.9422346e-18)
(0.26341177 -0.0001343551 2.4612191e-18)
(0.26343068 -0.0001875135 7.334194e-19)
(0.26345493 -0.00024032822 9.1789288e-19)
(0.26348171 -0.00029321054 3.9777715e-19)
(0.2635032 -0.00034584106 2.9155027e-19)
(0.2634993 -0.00039780175 2.5967287e-19)
(0.26342146 -0.00044800829 4.7393488e-20)
(0.26315483 -0.00049492778 -1.1901977e-19)
(0.26241041 -0.00053276478 3.8978513e-20)
(0.26031893 -0.00055643964 1.2727934e-19)
(0.2538966 -0.000519773 3.4549046e-20)
(0.23548766 -0.00039274464 3.5580868e-20)
(0.19676807 -0.00010792878 -8.6400002e-21)
(0.26418413 -3.2618312e-05 1.1256726e-18)
(0.26418991 -8.2574225e-05 3.1862804e-18)
(0.26420246 -0.00013166021 5.573356e-19)
(0.26422112 -0.0001837496 1.0349778e-18)
(0.26424465 -0.00023548648 9.1252223e-19)
(0.2642695 -0.00028726511 3.2505071e-19)
(0.26428624 -0.00033873795 5.0147994e-19)
(0.26427145 -0.00038944152 2.0173217e-19)
(0.26416998 -0.0004382328 1.6716642e-19)
(0.26385341 -0.00048335173 4.2347777e-20)
(0.26299854 -0.00051908846 9.1108454e-20)
(0.26062878 -0.00053898815 1.496859e-19)
(0.25350187 -0.00049331965 9.9237082e-20)
(0.2341376 -0.00036197184 2.9723779e-20)
(0.19506692 -9.1079354e-05 -1.3327043e-20)
(0.26495914 -3.1980324e-05 9.7804931e-19)
(0.2649649 -8.0945387e-05 2.8922756e-18)
(0.26497734 -0.00012905989 5.5416203e-19)
(0.26499568 -0.00018011622 6.115496e-19)
(0.26501831 -0.00023081031 1.1746699e-18)
(0.26504088 -0.00028151806 8.2372744e-19)
(0.2650522 -0.00033186392 4.9387603e-19)
(0.2650253 -0.00038133726 5.1625742e-20)
(0.26489816 -0.00042873842 2.0024604e-19)
(0.26452796 -0.00047209827 1.9189566e-19)
(0.26355413 -0.00050565096 1.4359208e-19)
(0.2608835 -0.00052167636 5.0168932e-20)
(0.25302971 -0.00046660631 6.2757645e-20)
(0.23282016 -0.00033188327 9.3587456e-21)
(0.19353413 -7.6303786e-05 4.2712237e-20)
(0.26571903 -3.1372765e-05 1.5204986e-18)
(0.26572475 -7.9390278e-05 1.9489548e-18)
(0.26573705 -0.00012657658 -1.9235286e-19)
(0.26575498 -0.00017664472 8.8398188e-19)
(0.26577653 -0.00022633987 8.614951e-19)
(0.26579644 -0.0002760185 1.0741337e-18)
(0.26580163 -0.0003252772 4.5514507e-19)
(0.26576141 -0.00037355728 2.3691958e-19)
(0.26560652 -0.00041960061 9.4159097e-20)
(0.26517878 -0.00046124612 2.6861816e-19)
(0.26407657 -0.00049254343 3.6580552e-20)
(0.26108058 -0.00050445572 -1.6126284e-20)
(0.25248384 -0.00043989699 5.7608809e-20)
(0.23154421 -0.00030262987 7.560453e-20)
(0.19215888 -6.360973e-05 5.6054399e-20)
(0.26646455 -3.0799673e-05 8.8749965e-18)
(0.26647021 -7.791971e-05 1.4647609e-18)
(0.26648233 -0.00012422759 4.3846645e-18)
(0.26649975 -0.0001733593 2.4682088e-18)
(0.26652002 -0.00022210618 -9.5316786e-19)
(0.26653688 -0.0002708044 1.4049122e-18)
(0.26653522 -0.00031902283 1.2771806e-18)
(0.26648042 -0.00036615421 1.0060855e-18)
(0.26629564 -0.00041087723 5.0653401e-19)
(0.26580617 -0.00045085191 -2.6852509e-19)
(0.26456508 -0.00047982866 3.0875334e-19)
(0.26121754 -0.00048726982 3.6685482e-19)
(0.25186982 -0.00041342264 3.84885e-19)
(0.23031742 -0.00027443217 3.634913e-19)
(0.1909297 -5.2932833e-05 1.3921597e-19)
(0.26719653 -3.0263687e-05 7.2438231e-18)
(0.26720212 -7.6541022e-05 9.3969475e-19)
(0.26721401 -0.00012202465 3.933131e-18)
(0.26723083 -0.00017027641 2.4523946e-18)
(0.2672496 -0.00021813033 6.7059008e-19)
(0.26726299 -0.00026590165 1.0356603e-18)
(0.26725373 -0.0003131315 1.4144569e-18)
(0.26718309 -0.00035916374 9.0115225e-19)
(0.26696618 -0.00040260692 6.1972543e-19)
(0.26641044 -0.00044094906 -2.0860922e-19)
(0.26501868 -0.00046753759 2.2022028e-19)
(0.26129202 -0.00047005901 3.3801357e-19)
(0.25119506 -0.00038738325 3.641499e-19)
(0.2291461 -0.00024754677 2.7008422e-19)
(0.18983455 -4.4145099e-05 1.2759608e-19)
(0.26791589 -2.9765991e-05 -2.9759934e-18)
(0.26792138 -7.5257932e-05 1.4541913e-18)
(0.26793299 -0.00011997376 1.4928907e-18)
(0.26794908 -0.00016740448 1.1954284e-18)
(0.26796613 -0.00021442312 2.1215292e-18)
(0.26797562 -0.00026132351 6.4382944e-19)
(0.267958 -0.00030761887 1.7953112e-19)
(0.26787018 -0.00035260381 2.1607307e-19)
(0.2676188 -0.00039480804 2.3394279e-20)
(0.2669918 -0.00043154706 4.940738e-20)
(0.26543617 -0.00045566686 -1.4455006e-19)
(0.2613021 -0.00045276642 -9.1962347e-20)
(0.2504687 -0.00036194908 -2.6583213e-20)
(0.22803501 -0.00022223217 3.2096475e-20)
(0.18886112 -3.7064087e-05 1.0410923e-19)
(0.26862352 -2.9306383e-05 1.8388904e-18)
(0.2686289 -7.4070661e-05 2.2501839e-18)
(0.26864017 -0.00011807532 2.6992e-18)
(0.26865542 -0.00016474412 2.8867634e-18)
(0.26867049 -0.00021098533 2.1210108e-18)
(0.26867563 -0.000257071 1.7616387e-18)
(0.26864885 -0.00030248606 1.0304317e-18)
(0.26854251 -0.00034647515 6.3897178e-19)
(0.26825414 -0.00038747924 6.6989358e-19)
(0.26755035 -0.00042263245 -1.6943786e-19)
(0.2658161 -0.00044417905 2.4717032e-19)
(0.26124652 -0.00043534493 1.2612583e-19)
(0.24970133 -0.00033726333 1.6357346e-19)
(0.22698727 -0.00019871676 1.9379319e-19)
(0.18799711 -3.1466398e-05 2.8493815e-19)
(0.26932033 -2.8883461e-05 2.4790977e-18)
(0.26932558 -7.2976356e-05 -9.9570448e-19)
(0.26933645 -0.00011632481 1.0204157e-18)
(0.26935072 -0.00016228909 2.5703979e-18)
(0.26936357 -0.0002078089 1.6197232e-18)
(0.26936389 -0.00025313433 1.4796547e-18)
(0.26932713 -0.0002977213 1.4370401e-18)
(0.26920083 -0.00034076321 9.4707817e-19)
(0.2688728 -0.00038060158 5.7025697e-19)
(0.26808605 -0.00041417146 2.2000351e-19)
(0.26615679 -0.00043300583 4.5043507e-19)
(0.26112496 -0.00041776402 3.3623253e-19)
(0.24890441 -0.00031344658 2.6628352e-19)
(0.22600436 -0.00017717261 3.0274576e-19)
(0.18723056 -2.7105587e-05 1.7094029e-19)
(0.27000719 -2.849491e-05 3.3825732e-18)
(0.27001228 -7.1969743e-05 1.5667634e-18)
(0.27002267 -0.00011471384 3.2205258e-18)
(0.27003583 -0.00016002771 2.4254758e-18)
(0.27004618 -0.00020487885 1.2812033e-18)
(0.27004119 -0.00024949515 1.1835108e-18)
(0.2699936 -0.00029330262 1.1826149e-18)
(0.26984584 -0.00033544136 9.8228926e-19)
(0.26947524 -0.00037414208 3.1769137e-19)
(0.2685986 -0.00040611399 2.5154236e-19)
(0.26645635 -0.00042205446 3.4187125e-19)
(0.2609383 -0.00040001524 4.1983197e-19)
(0.24808975 -0.00029060213 3.5085721e-19)
(0.22508629 -0.00015769827 4.6787554e-19)
(0.18655015 -2.3732129e-05 2.4293785e-19)
(0.27068489 -2.8137825e-05 8.8535401e-18)
(0.2706898 -7.1043906e-05 4.2575714e-18)
(0.27069965 -0.00011323138 4.6387704e-18)
(0.27071153 -0.00015794462 3.719918e-18)
(0.2707191 -0.00020217544 1.765021e-18)
(0.27070829 -0.00024612932 1.990115e-18)
(0.27064898 -0.00028920108 1.8805977e-18)
(0.27047818 -0.00033047455 1.5415852e-18)
(0.27006181 -0.00036805783 1.0339175e-18)
(0.26908753 -0.00039839812 -2.1613188e-20)
(0.26671278 -0.00041121648 5.7113311e-19)
(0.26068881 -0.00038211515 6.3227337e-19)
(0.24726882 -0.00026882041 7.4475277e-19)
(0.22423175 -0.00014031231 5.8919515e-19)
(0.18594537 -2.1112148e-05 4.2337459e-19)
(0.27135418 -2.7809012e-05 2.4901779e-18)
(0.27135887 -7.0191041e-05 4.0678255e-18)
(0.2713681 -0.00011186497 2.4923135e-18)
(0.27137855 -0.00015602247 1.5928934e-18)
(0.27138304 -0.00019967637 2.1545888e-18)
(0.27136587 -0.00024300948 1.5662555e-18)
(0.27129391 -0.00028538386 1.2310682e-18)
(0.27109836 -0.000325823 9.6871036e-19)
(0.27063272 -0.00036230005 6.1372967e-19)
(0.26955206 -0.00039095432 1.7859478e-19)
(0.26692403 -0.00040037784 2.5043857e-19)
(0.26038022 -0.00036410564 4.325265e-19)
(0.24645221 -0.00024818088 5.3416702e-19)
(0.22343841 -0.00012495718 1.969953e-19)
(0.18540672 -1.904183e-05 3.1358078e-19)
(0.27201571 -2.7505235e-05 1.4120187e-18)
(0.27202015 -6.9403099e-05 2.910822e-18)
(0.27202867 -0.00011060176 1.9437991e-18)
(0.27203751 -0.00015424331 1.4172152e-18)
(0.2720386 -0.00019735858 2.3657843e-18)
(0.27201452 -0.00024010733 1.7158496e-18)
(0.27192892 -0.00028181693 1.2728467e-18)
(0.2717068 -0.00032144525 9.3347573e-19)
(0.27118802 -0.00035681747 7.2037826e-19)
(0.2699912 -0.00038370884 4.4451074e-19)
(0.26708822 -0.000389429 2.0678016e-19)
(0.26001771 -0.00034605163 5.2011897e-19)
(0.24564917 -0.00022875086 5.0271704e-19)
(0.22270325 -0.00011151161 4.3325881e-19)
(0.18492573 -1.7355843e-05 3.9609337e-19)
(0.27267005 -2.7223403e-05 7.1930549e-19)
(0.27267421 -6.8672268e-05 1.1319069e-18)
(0.27268192 -0.00010942927 1.644888e-19)
(0.27268898 -0.00015258973 1.8997296e-18)
(0.27268634 -0.00019519966 2.4908062e-18)
(0.27265476 -0.00023739527 1.4386813e-18)
(0.27255447 -0.00027846699 1.2877195e-18)
(0.2723038 -0.00031730047 9.2897428e-19)
(0.27172757 -0.00035155883 8.7666108e-19)
(0.27040369 -0.00037658611 7.1912948e-19)
(0.26720375 -0.00037827411 4.0265911e-19)
(0.25960771 -0.00032803713 3.8450267e-19)
(0.24486735 -0.00021058184 4.216543e-19)
(0.22202277 -9.9808138e-05 4.1825421e-19)
(0.18449494 -1.5929484e-05 3.5371739e-19)
(0.27331772 -2.6960666e-05 2.772514e-18)
(0.27332155 -6.7991273e-05 4.9491782e-18)
(0.27332837 -0.00010833587 3.4808206e-18)
(0.27333345 -0.00015104547 2.2094314e-18)
(0.27332673 -0.00019317869 1.4496611e-18)
(0.27328702 -0.00023484751 1.4861499e-18)
(0.27317093 -0.0002753027 1.2540385e-18)
(0.27288957 -0.00031334989 1.079908e-18)
(0.27225107 -0.00034647442 6.582125e-19)
(0.27078808 -0.00036951039 6.6964462e-19)
(0.26726952 -0.00036683813 3.8747676e-19)
(0.25915765 -0.0003101602 2.4879489e-19)
(0.24411266 -0.00019370463 2.9093043e-19)
(0.22139331 -8.9652402e-05 2.5973082e-19)
(0.1841079 -1.4675689e-05 3.3018122e-19)
(0.27395916 -2.6714475e-05 8.0468309e-18)
(0.27396262 -6.7353542e-05 4.8830974e-18)
(0.27396843 -0.00010731104 5.5767186e-18)
(0.27397134 -0.00014959583 3.4259579e-18)
(0.27396016 -0.00019127671 1.8838623e-18)
(0.27391168 -0.00023244055 2.3452419e-18)
(0.2737786 -0.00027229533 1.841887e-18)
(0.27346419 -0.00030955757 1.7884276e-18)
(0.27275806 -0.00034151676 1.1257132e-18)
(0.27114274 -0.00036240704 4.1673231e-19)
(0.26728512 -0.00035507155 6.1507271e-19)
(0.25867552 -0.00029252748 6.4328765e-19)
(0.24338933 -0.00017812521 5.8559653e-19)
(0.22081116 -8.0841191e-05 6.3490085e-19)
(0.18375901 -1.3538666e-05 4.6334633e-19)
(0.27459475 -2.6482589e-05 1.0529826e-19)
(0.2745978 -6.6753259e-05 3.0575372e-18)
(0.27460249 -0.0001063455 3.153787e-18)
(0.274603 -0.0001482278 2.3520443e-18)
(0.27458699 -0.00018947691 2.7243721e-18)
(0.27452902 -0.00023015345 1.0692296e-18)
(0.27437767 -0.00026941895 9.8348875e-19)
(0.27402763 -0.00030589064 8.2426633e-19)
(0.27324789 -0.00033664079 7.964991e-19)
(0.27146593 -0.0003552038 4.6943638e-19)
(0.26725094 -0.00034295249 3.8676853e-19)
(0.25816956 -0.00027524859 3.7028235e-19)
(0.24270004 -0.00016382254 3.2875663e-19)
(0.22027275 -7.3177109e-05 3.2036447e-19)
(0.18344349 -1.2486088e-05 2.2918838e-19)
(0.27522481 -2.6263071e-05 2.9052695e-18)
(0.27522741 -6.6185367e-05 4.2653715e-18)
(0.27523087 -0.00010543114 3.306593e-18)
(0.27522875 -0.00014693 2.5191586e-18)
(0.27520748 -0.00018776455 2.5317618e-18)
(0.2751393 -0.00022796774 1.1641102e-18)
(0.27496829 -0.00026665041 1.0026096e-18)
(0.27457978 -0.00030231921 9.3548619e-19)
(0.27371976 -0.0003318036 5.4893285e-19)
(0.27175586 -0.00034783257 5.3651076e-19)
(0.26716832 -0.00033048644 3.1759545e-19)
(0.25764777 -0.0002584306 4.4353713e-19)
(0.24204621 -0.0001507494 4.7141529e-19)
(0.21977469 -6.6478884e-05 4.1194471e-19)
(0.18315725 -1.1501421e-05 2.7374643e-19)
(0.27584964 -2.6054261e-05 5.5565027e-18)
(0.27585173 -6.5645511e-05 3.0193609e-18)
(0.27585383 -0.00010456098 2.0100344e-18)
(0.27584885 -0.00014569263 2.2664896e-18)
(0.27582189 -0.00018612688 2.1834333e-18)
(0.2757427 -0.00022586725 1.5505627e-18)
(0.27555053 -0.00026396905 1.0010967e-18)
(0.27512041 -0.00029881615 9.4188154e-19)
(0.27417268 -0.00032696405 6.057341e-19)
(0.27201082 -0.00034023144 6.6187101e-19)
(0.26703956 -0.00031770398 4.2788134e-19)
(0.25711762 -0.00024217267 5.4586597e-19)
(0.24142819 -0.00013883591 5.2228104e-19)
(0.21931381 -6.0587304e-05 3.5388247e-19)
(0.18289682 -1.057747e-05 2.9978973e-19)
(0.27646948 -2.5854749e-05 2.9408435e-18)
(0.27647102 -6.5129981e-05 4.6114649e-18)
(0.27647162 -0.00010372909 3.603484e-18)
(0.27646352 -0.0001445073 2.4014068e-18)
(0.2764304 -0.00018455289 1.3032554e-18)
(0.27633935 -0.00022383791 1.5360483e-18)
(0.27612438 -0.00026135649 1.2273113e-18)
(0.27564919 -0.00029535665 7.2410752e-19)
(0.27460555 -0.00032208226 6.576019e-19)
(0.27222923 -0.0003323472 6.3948184e-19)
(0.26686787 -0.00030465719 4.7546698e-19)
(0.25658579 -0.00022656126 4.7888905e-19)
(0.2408456 -0.00012799526 4.4899335e-19)
(0.21888719 -5.5367365e-05 3.8562909e-19)
(0.18265925 -9.7115789e-06 2.4795003e-19)
(0.27708455 -2.5663344e-05 5.0040909e-18)
(0.27708548 -6.4635631e-05 4.6444157e-18)
(0.27708444 -0.0001029304 5.2585262e-18)
(0.27707295 -0.00014336686 4.2518135e-18)
(0.27703318 -0.00018303314 1.7443856e-18)
(0.27692935 -0.00022186743 2.5355556e-18)
(0.2766898 -0.00025879623 2.178374e-18)
(0.27616569 -0.00029191777 1.6660811e-18)
(0.27501711 -0.00031711916 1.2079103e-18)
(0.27240981 -0.00032413774 4.3453186e-19)
(0.26665729 -0.00029141517 7.2870468e-19)
(0.256058 -0.00021166603 8.4681508e-19)
(0.24029748 -0.00011813047 8.5026234e-19)
(0.21849214 -5.0707643e-05 8.5648275e-19)
(0.18244204 -8.902533e-06 4.2775455e-19)
(0.27769504 -2.5479044e-05 2.6320973e-20)
(0.27769529 -6.4159806e-05 4.5090724e-18)
(0.27769247 -0.00010216064 3.3321649e-18)
(0.27767729 -0.00014226521 2.7979347e-18)
(0.27763035 -0.0001815595 2.6985503e-18)
(0.27751275 -0.00021994503 1.7389164e-18)
(0.27724666 -0.00025627339 1.2302689e-18)
(0.27666938 -0.00028847796 9.8271974e-19)
(0.275406 -0.00031203634 8.1833995e-19)
(0.27255164 -0.00031557421 4.6256255e-19)
(0.26641246 -0.00027805926 4.7813226e-19)
(0.25553894 -0.00019753711 4.7682262e-19)
(0.23978254 -0.00010914113 5.3296612e-19)
(0.21812621 -4.6517862e-05 3.2992862e-19)
(0.18224308 -8.1488546e-06 2.4007369e-19)
(0.27830111 -2.5301005e-05 3.4064743e-18)
(0.27830062 -6.3700268e-05 3.2794208e-18)
(0.27829586 -0.0001014162 3.3029473e-18)
(0.2782767 -0.00014119716 2.5328429e-18)
(0.278222 -0.00018012493 2.6519957e-18)
(0.27808956 -0.00021806116 1.8533658e-18)
(0.2777948 -0.00025377436 1.0393375e-18)
(0.27715962 -0.0002850166 8.8417775e-19)
(0.27577079 -0.00030679609 5.9063776e-19)
(0.27265429 -0.00030664249 4.6023162e-19)
(0.26613848 -0.00026467813 4.4422686e-19)
(0.2550323 -0.00018420368 3.7806032e-19)
(0.23929925 -0.00010092916 5.1997823e-19)
(0.21778713 -4.2725647e-05 4.2283911e-19)
(0.18206056 -7.4481446e-06 2.7766923e-19)
(0.27890291 -2.5128516e-05 2.0017417e-18)
(0.27890162 -6.3255127e-05 7.2897755e-19)
(0.27889474 -0.00010069401 1.7596493e-18)
(0.27887126 -0.00014015826 2.9513892e-18)
(0.27880821 -0.00017872332 2.3768977e-18)
(0.27865976 -0.00021620724 1.8144882e-18)
(0.27833397 -0.00025128651 1.4204185e-18)
(0.27763569 -0.00028151345 1.1507725e-18)
(0.27611001 -0.00030136189 8.0037944e-19)
(0.2727179 -0.00029734386 8.4527799e-19)
(0.26584062 -0.00025136318 5.4981401e-19)
(0.25454084 -0.0001716744 4.5995702e-19)
(0.23884602 -9.3403162e-05 3.5315385e-19)
(0.21747286 -3.9273088e-05 3.8045912e-19)
(0.18189296 -6.7970331e-06 3.5524167e-19)
(0.27950056 -2.4960972e-05 -1.5100966e-18)
(0.2794984 -6.2822774e-05 3.4414382e-18)
(0.27948922 -9.9991431e-05 1.5333012e-18)
(0.27946108 -0.00013914466 1.9238215e-18)
(0.279389 -0.00017734922 2.0452035e-18)
(0.27922329 -0.00021437542 9.2393297e-19)
(0.27886389 -0.00024879793 7.2791414e-19)
(0.27809674 -0.00027794828 4.5196545e-19)
(0.27642222 -0.00029569921 6.0097822e-19)
(0.27274323 -0.00028769474 9.7536075e-19)
(0.2655241 -0.00023820407 3.6475627e-19)
(0.25406651 -0.00015993912 3.112673e-19)
(0.23842119 -8.6481054e-05 6.543377e-20)
(0.21718151 -3.6113614e-05 2.4689008e-20)
(0.18173897 -6.1914749e-06 1.7505895e-19)
(0.28009418 -2.4797856e-05 1.7997438e-18)
(0.28009107 -6.2401833e-05 3.9985272e-18)
(0.28007941 -9.9306213e-05 3.4708507e-18)
(0.28004623 -0.00013815299 1.7686964e-18)
(0.27996442 -0.00017599776 2.4146967e-18)
(0.27978006 -0.00021255837 1.1711361e-18)
(0.2793842 -0.00024629715 5.641921e-19)
(0.27854186 -0.00027430051 4.9340177e-19)
(0.27670605 -0.00028977676 5.8065848e-19)
(0.27273166 -0.0002777256 9.0506998e-19)
(0.26519392 -0.00022528491 3.190962e-19)
(0.25361059 -0.00014897206 2.8911137e-19)
(0.23802316 -8.0091233e-05 1.3425029e-19)
(0.21691137 -3.3209341e-05 1.852482e-19)
(0.18159747 -5.6270988e-06 1.5712848e-19)
(0.28068388 -2.4638721e-05 2.3790789e-18)
(0.28067974 -6.1991113e-05 4.550524e-18)
(0.28066539 -9.8636368e-05 3.6244393e-18)
(0.28062676 -0.00013718022 2.0000936e-18)
(0.28053445 -0.00017466447 2.5072754e-18)
(0.28032993 -0.00021074911 1.2423224e-18)
(0.27989449 -0.00024377295 7.2618215e-19)
(0.27897002 -0.0002705489 4.4577577e-19)
(0.27696025 -0.00028356785 3.8167607e-19)
(0.27268518 -0.00026747915 6.0050388e-19)
(0.26485469 -0.00021268092 2.927121e-19)
(0.25317379 -0.00013873548 1.7714124e-19)
(0.23765034 -7.4172518e-05 -1.5822704e-20)
(0.2166609 -3.0529033e-05 1.5203705e-19)
(0.18146749 -5.0995677e-06 1.1122618e-19)
(0.28126974 -2.4483173e-05 2.4755043e-18)
(0.28126449 -6.1589567e-05 6.2238593e-18)
(0.28124722 -9.7980136e-05 3.1420794e-18)
(0.28120271 -0.00013622364 9.7847286e-19)
(0.28109907 -0.00017334515 8.4805076e-19)
(0.28087275 -0.00020894083 3.3399399e-19)
(0.28039427 -0.00024121406 4.4227693e-20)
(0.27938014 -0.00026667151 -4.144496e-20)
(0.27718382 -0.00027705191 2.7869474e-20)
(0.27260633 -0.00025700812 5.6551425e-20)
(0.26451052 -0.00020045587 -3.0214826e-19)
(0.25275643 -0.00012918378 -3.722754e-19)
(0.23730122 -6.8673277e-05 -3.6819581e-19)
(0.21642866 -2.804656e-05 -1.7325286e-19)
(0.18134818 -4.604812e-06 -8.3565188e-20)
(0.28185185 -2.4330856e-05 2.0539863e-18)
(0.28184539 -6.1196251e-05 5.4027439e-18)
(0.28182498 -9.7335908e-05 3.5629817e-18)
(0.28177412 -0.00013528068 9.6998819e-19)
(0.28165823 -0.00017203573 4.1411108e-19)
(0.2814083 -0.00020712676 2.5686621e-19)
(0.28088299 -0.00023860899 9.0367054e-20)
(0.27977106 -0.0002626457 3.8402501e-20)
(0.27737601 -0.00027021574 1.5264116e-19)
(0.27249806 -0.00024637257 -1.4124246e-20)
(0.26416497 -0.0001886604 -1.8502607e-19)
(0.2523585 -0.00012026722 -4.2233964e-19)
(0.23697438 -6.3550127e-05 -2.8387782e-19)
(0.21621337 -2.5739817e-05 -3.7587314e-19)
(0.18123881 -4.1392045e-06 -5.3169214e-20)
(0.28243029 -2.4181448e-05 2.9139393e-18)
(0.28242252 -6.0810308e-05 4.1878992e-18)
(0.28239871 -9.6702197e-05 3.6440012e-18)
(0.28234099 -0.00013434892 2.4884736e-18)
(0.28221186 -0.00017073227 1.6794957e-18)
(0.28193636 -0.00020530013 1.4094898e-18)
(0.28136003 -0.00023594579 1.0284496e-18)
(0.2801416 -0.00025844846 5.9014745e-19)
(0.27753642 -0.00026305461 5.1789029e-19)
(0.27236366 -0.00023563726 8.4278942e-20)
(0.26382105 -0.00017733136 3.6429214e-19)
(0.25197976 -0.0001119352 1.8661493e-19)
(0.23666845 -5.8766492e-05 2.6072711e-19)
(0.21601387 -2.3589921e-05 9.2118779e-20)
(0.1811387 -3.6995985e-06 1.3409174e-19)
(0.28300512 -2.4034648e-05 4.5722741e-18)
(0.28299594 -6.0430938e-05 2.5275079e-18)
(0.28296845 -9.6077595e-05 3.0501417e-18)
(0.28290332 -0.00013342601 2.3557052e-18)
(0.28275987 -0.00016943078 2.0604025e-18)
(0.28245663 -0.00020345397 1.4394116e-18)
(0.28182471 -0.00023321186 1.0789778e-18)
(0.28049057 -0.0002540569 5.8799362e-19)
(0.27766504 -0.00025557284 4.9242043e-19)
(0.27220658 -0.0002248688 6.7731235e-19)
(0.26348123 -0.00016649191 4.3669434e-19)
(0.25161982 -0.00010413863 1.6154432e-19)
(0.23638216 -5.4291233e-05 6.4535157e-20)
(0.21582908 -2.1580663e-05 8.9817271e-20)
(0.18104728 -3.2833445e-06 1.1760399e-19)
(0.2835764 -2.3890167e-05 5.378946e-18)
(0.28356569 -6.0057379e-05 4.1964587e-18)
(0.28353424 -9.5460739e-05 3.4440624e-18)
(0.2834611 -0.00013250962 2.8021835e-18)
(0.28330215 -0.00016812719 2.2500383e-18)