/*--------------------------------*- C++ -*----------------------------------*\
| =========                 |                                                 |
| \\      /  F ield         | OpenFOAM: The Open Source CFD Toolbox           |
|  \\    /   O peration     | Version:  2506                                  |
|   \\  /    A nd           | Website:  www.openfoam.com                      |
|    \\/     M anipulation  |                                                 |
\*---------------------------------------------------------------------------*/
FoamFile
{
    version     2.0;
    format      ascii;
    arch        "LSB;label=32;scalar=64";
    class       volScalarField;
    location    "10000/water";
    object      alphat;
}
// * * * * * * * * * * * * * * * * * * * * * * * * * * * * * * * * * * * * * //

dimensions      [1 -1 -1 0 0 0 0];

internalField   nonuniform List<scalar> 
2600
(
0.040489031
0.04048893
0.040488932
0.040488969
0.04048893
0.040488424
0.040485257
0.04046703
0.040362559
0.039762099
0.036475623
0.024118064
0.014862723
0.039376404
0.039376463
0.039376584
0.03937667
0.03937627
0.039373342
0.039357935
0.03928206
0.038918252
0.037247647
0.030707814
0.017504579
0.016810247
0.03845331
0.038453299
0.038453385
0.038453188
0.038451259
0.038441479
0.038397507
0.038208927
0.037432867
0.034484227
0.025768479
0.01464355
0.017680736
0.037674097
0.037673994
0.037673876
0.037672833
0.03766736
0.037643826
0.037549741
0.037190974
0.035896577
0.031717985
0.022022178
0.013507107
0.017935556
0.037006829
0.037006634
0.03700605
0.037003229
0.036991211
0.03694503
0.036777672
0.036201229
0.034343725
0.029136321
0.019390213
0.01332192
0.01787019
0.036428097
0.036427705
0.036426239
0.036420305
0.036397905
0.036319194
0.03605724
0.035231095
0.03281421
0.026833154
0.017684561
0.01376901
0.017658004
0.035920433
0.035919673
0.03591673
0.035905979
0.035868817
0.035747845
0.035374204
0.034281783
0.031338745
0.024847734
0.016751764
0.014701365
0.017395975
0.035470606
0.03546924
0.035464057
0.035446499
0.035390052
0.035218253
0.034721129
0.033357857
0.029935921
0.02320089
0.016491475
0.016024754
0.017137191
0.035068412
0.03506614
0.035057811
0.035031314
0.034951338
0.034722033
0.034094772
0.032463227
0.028616047
0.021918168
0.016839593
0.01764423
0.016909598
0.034705855
0.034702323
0.034689851
0.034652315
0.034545228
0.034254009
0.03349406
0.031599319
0.027389013
0.021039007
0.017742707
0.01944683
0.016725717
0.034376582
0.0343714
0.034353768
0.03430331
0.034166516
0.033811296
0.032918607
0.030765036
0.026274288
0.020612421
0.019134169
0.021310298
0.0165878
0.034075484
0.034068256
0.034044512
0.033979658
0.033811775
0.033392551
0.032367695
0.029958513
0.025310237
0.020682514
0.02092045
0.023125093
0.01649134
0.03379842
0.033788771
0.033758129
0.033677993
0.033478994
0.032997353
0.031839672
0.029180919
0.024557973
0.021270679
0.022983308
0.024813262
0.016428198
0.033542011
0.033529635
0.033491576
0.033396025
0.033167279
0.032625685
0.031331905
0.02844226
0.024095307
0.02236241
0.02519592
0.026333969
0.016389375
0.033303501
0.033288203
0.033242589
0.033132389
0.0328766
0.032277488
0.030841496
0.027768047
0.024001078
0.023903802
0.027443847
0.027676786
0.016366908
0.033080659
0.033062404
0.03300959
0.032886524
0.032607559
0.031952311
0.030367144
0.027204004
0.02433601
0.025808536
0.029640409
0.028850257
0.01635471
0.032871707
0.032850677
0.032791627
0.032658586
0.032361164
0.031649138
0.029912405
0.026815113
0.025128027
0.027972562
0.031731262
0.029871996
0.016348606
0.032675278
0.032651931
0.032588332
0.032449362
0.032138606
0.031366538
0.029490156
0.026676985
0.026366621
0.030291379
0.033689749
0.03076244
0.016345973
0.032490392
0.032465523
0.0323999
0.032260198
0.031941021
0.031103392
0.029127151
0.02686156
0.02800632
0.032674379
0.035508203
0.031541614
0.016345289
0.03231644
0.032291251
0.032227075
0.032092906
0.0317693
0.030860474
0.028866523
0.027422393
0.029976611
0.035052626
0.037189756
0.032227633
0.016345749
0.032153193
0.032129365
0.032071151
0.03194966
0.031623986
0.030643052
0.028765901
0.028384666
0.032194873
0.037379728
0.038742712
0.032836119
0.016346971
0.032000817
0.031980587
0.031933965
0.031832869
0.031505423
0.030464305
0.028890208
0.029742267
0.034578893
0.039628037
0.040177386
0.033380109
0.016348812
0.031859898
0.031846136
0.031817892
0.031745018
0.031414332
0.030348686
0.029300793
0.031461306
0.03705624
0.041783218
0.041504534
0.033870255
0.016351246
0.031731488
0.031727775
0.031725824
0.031688525
0.031353058
0.030333687
0.03004446
0.033487921
0.039569147
0.043839372
0.042734576
0.034315151
0.016354289
0.031617156
0.031627852
0.031661122
0.031665645
0.031327614
0.030468388
0.031145808
0.035757859
0.042075205
0.045795592
0.043877212
0.034721702
0.016357969
0.031519059
0.031549348
0.031627544
0.031678558
0.031350384
0.030808114
0.032604581
0.038205562
0.044545298
0.047653853
0.044941235
0.035095454
0.016362308
0.03144002
0.031495925
0.031629136
0.03172978
0.031442846
0.031406232
0.034397783
0.040771063
0.046960467
0.049417772
0.045934486
0.035440887
0.01636731
0.031383622
0.031471952
0.031670108
0.031823119
0.03163718
0.032305489
0.036485153
0.043403921
0.049308928
0.051091868
0.046863898
0.035761639
0.016372969
0.03135431
0.031482519
0.031754745
0.031965286
0.031975487
0.033531432
0.038816238
0.046064366
0.051583773
0.05268107
0.047735564
0.036060693
0.016379266
0.031357497
0.031533412
0.031887428
0.032168114
0.032505949
0.035089414
0.04133735
0.048722495
0.053781407
0.054190406
0.048554838
0.036340518
0.016386174
0.03139966
0.031631057
0.032072923
0.032450918
0.033276478
0.036965356
0.043997172
0.051356525
0.055900495
0.05562481
0.049326441
0.036603249
0.016393659
0.031488427
0.031782429
0.032317111
0.032842102
0.034327514
0.039129418
0.046750333
0.053950901
0.057941207
0.056988872
0.050054078
0.036848496
0.016401672
0.031632621
0.031994974
0.03262831
0.033378945
0.03568599
0.0415413
0.049558965
0.056494682
0.059904717
0.058286903
0.050741226
0.037078061
0.016410157
0.031842264
0.032276621
0.033019163
0.034104839
0.037361927
0.044155833
0.052392712
0.058980323
0.061792813
0.059522755
0.051390025
0.037293992
0.01641906
0.032128529
0.032636021
0.03350877
0.035064178
0.039348107
0.046927801
0.055227855
0.061402779
0.063607639
0.060699935
0.052002676
0.037497695
0.016428334
0.032503669
0.033083203
0.034124294
0.036296095
0.041622397
0.049815352
0.05804613
0.063758857
0.065351543
0.061821636
0.052582579
0.037690193
0.016437945
0.032980999
0.033630793
0.034901053
0.037828725
0.044151808
0.052781863
0.06083358
0.066046675
0.067026698
0.062889499
0.053132467
0.03787253
0.016447871
0.033575091
0.034295799
0.035880358
0.03967544
0.046897146
0.055796498
0.063579594
0.068265328
0.068635566
0.063907353
0.053654301
0.038045473
0.016458088
0.034302363
0.035101598
0.037105059
0.04183371
0.049817336
0.058833926
0.066276148
0.07041439
0.070179106
0.064878396
0.054149994
0.038209783
0.016468569
0.035182271
0.036079346
0.038613751
0.044286493
0.052872726
0.06187359
0.06891717
0.072494022
0.071660186
0.065805208
0.054621164
0.038366085
0.016479288
0.036239034
0.037267801
0.040435144
0.047005425
0.056027167
0.064898909
0.071498021
0.074503816
0.07308148
0.066690098
0.055069325
0.038514917
0.016490218
0.037503408
0.038710778
0.042584033
0.049954853
0.05924893
0.067896458
0.074015177
0.076444638
0.074445473
0.067535116
0.055495818
0.038656742
0.016501334
0.039013489
0.040452257
0.045059707
0.053095823
0.062510839
0.070855329
0.076465319
0.078317607
0.075754301
0.068342164
0.055901825
0.038791952
0.01651261
0.040813292
0.042530148
0.047846799
0.056389291
0.065789802
0.073766502
0.078846461
0.080124248
0.077009864
0.069112936
0.056288383
0.03892088
0.016524019
0.042948301
0.044970309
0.050918044
0.059798371
0.069066315
0.076621963
0.081156912
0.08186579
0.078213921
0.069848939
0.056656393
0.039043803
0.016535536
0.045458358
0.047782276
0.054237934
0.06328938
0.072323484
0.079415202
0.083396338
0.083543324
0.079368016
0.070551488
0.057006627
0.039160948
0.016547136
0.048369473
0.050957546
0.057766449
0.066832232
0.075546551
0.08214074
0.085564131
0.085157806
0.080473483
0.071221708
0.057339735
0.039272496
0.016558794
0.051686903
0.054470398
0.061462104
0.070399918
0.078721988
0.08479491
0.087659695
0.086709991
0.081531432
0.071860534
0.057656249
0.039378585
0.016570485
0.055391476
0.058280541
0.065283672
0.073967545
0.081839612
0.08737411
0.089682329
0.0882004
0.082542733
0.072468719
0.05795659
0.03947931
0.016582185
0.059440047
0.06233651
0.069190807
0.077514013
0.084890579
0.089874886
0.091631152
0.089629288
0.08350801
0.073046826
0.058241066
0.039574726
0.016593867
0.063769495
0.066579741
0.073146312
0.081021486
0.087866745
0.092293815
0.093505057
0.090996629
0.084427632
0.073595232
0.058509877
0.039664848
0.016605507
0.068304191
0.070949154
0.077116138
0.084473726
0.090760494
0.094627442
0.095302681
0.092302099
0.085301713
0.074114126
0.058763118
0.039749652
0.016617076
0.072963986
0.075384361
0.081068542
0.087855787
0.093564628
0.096872252
0.097022414
0.093545089
0.086130113
0.07460352
0.059000775
0.039829075
0.016628545
0.077671234
0.07982837
0.084974044
0.091153822
0.096272323
0.099024703
0.098662428
0.094724725
0.086912462
0.075063251
0.059222741
0.039903018
0.016639885
0.082355852
0.084229578
0.088805526
0.094354989
0.098877144
0.10108128
0.10022075
0.095839924
0.087648184
0.075493004
0.059428814
0.039971348
0.016651062
0.086958196
0.088543067
0.092538468
0.097447475
0.1013731
0.10303861
0.10169534
0.096889456
0.088336548
0.075892341
0.059618721
0.040033906
0.016662041
0.091430061
0.092731242
0.096151217
0.10042059
0.10375475
0.10489356
0.10308423
0.097872038
0.088976725
0.07626073
0.059792129
0.040090509
0.016672786
0.095734333
0.096763903
0.099625247
0.10326488
0.1060173
0.10664336
0.10438561
0.098786429
0.089567865
0.076597603
0.059948677
0.040140969
0.016683256
0.099843871
0.10061788
0.1029453
0.10597234
0.10815674
0.10828577
0.10559799
0.099631546
0.090109175
0.076902399
0.060088005
0.040185097
0.016693411
0.10374004
0.10427637
0.10609943
0.10853645
0.11016991
0.1098191
0.10672028
0.10040656
0.0906
0.07717463
0.060209784
0.040222723
0.016703211
0.10741121
0.10772814
0.10907888
0.1109523
0.11205461
0.11124239
0.10775188
0.10111097
0.091039907
0.077413935
0.060313758
0.040253706
0.016712613
0.11085133
0.11096669
0.1118779
0.11321661
0.11380961
0.11255536
0.10869278
0.10174473
0.091428748
0.077620131
0.06039977
0.040277955
0.016721578
0.11405872
0.11398938
0.11449342
0.11532767
0.1154347
0.11375851
0.10954355
0.10230823
0.091766716
0.077793263
0.060467797
0.040295436
0.01673007
0.1170351
0.11679673
0.11692478
0.11728527
0.11693063
0.11485307
0.11030539
0.10280238
0.092054377
0.077933635
0.060517972
0.040306185
0.016738054
0.11978473
0.11939173
0.11917336
0.11909058
0.11829907
0.11584099
0.1109801
0.10322858
0.092292693
0.078041828
0.060550597
0.040310317
0.016745503
0.12231376
0.12177932
0.12124224
0.12074599
0.11954256
0.11672489
0.11157003
0.10358871
0.092483013
0.078118708
0.060566154
0.040308025
0.016752393
0.12462978
0.12396588
0.12313589
0.12225497
0.12066439
0.11750796
0.11207807
0.10388511
0.092627059
0.078165417
0.060565299
0.04029958
0.016758707
0.12674132
0.12595891
0.1248599
0.12362187
0.1216685
0.11819392
0.11250753
0.10412051
0.092726888
0.078183357
0.060548851
0.040285327
0.016764436
0.12865765
0.12776669
0.12642072
0.12485181
0.1225594
0.11878694
0.11286211
0.10429799
0.092784857
0.07817416
0.06051778
0.040265676
0.016769576
0.13038844
0.12939802
0.12782546
0.12595046
0.12334205
0.11929153
0.11314583
0.1044209
0.092803568
0.078139651
0.06047318
0.040241092
0.016774131
0.13194361
0.13086206
0.12908166
0.12692398
0.12402177
0.11971246
0.11336292
0.10449282
0.092785816
0.07808181
0.060416247
0.040212083
0.01677811
0.13333321
0.13216813
0.13019718
0.12777882
0.12460411
0.12005471
0.1135178
0.10451747
0.092734535
0.07800273
0.060348247
0.040179183
0.016781528
0.13456722
0.1333256
0.13118006
0.12852165
0.12509482
0.12032339
0.11361495
0.10449866
0.092652748
0.07790458
0.060270492
0.040142946
0.016784407
0.13565554
0.13434381
0.13203838
0.12915926
0.12549972
0.12052364
0.11365891
0.10444025
0.092543515
0.077789556
0.060184316
0.040103926
0.016786771
0.13660789
0.13523194
0.1327802
0.12969847
0.12582469
0.12066063
0.11365423
0.10434607
0.092409891
0.077659857
0.060091041
0.040062673
0.016788648
0.1374337
0.13599899
0.13341348
0.13014605
0.12607554
0.12073947
0.11360536
0.1042199
0.092254887
0.077517643
0.059991968
0.040019717
0.016790068
0.13814215
0.1366537
0.13394599
0.13050867
0.12625801
0.12076515
0.11351667
0.10406545
0.092081434
0.077365011
0.059888346
0.039975562
0.016791064
0.13874209
0.13720452
0.13438533
0.13079287
0.12637772
0.12074259
0.11339241
0.10388627
0.091892357
0.077203974
0.059781366
0.039930683
0.016791671
0.13924199
0.13765961
0.13473883
0.13100499
0.12644013
0.1206765
0.11323665
0.10368581
0.091690354
0.077036441
0.059672144
0.039885516
0.016791921
0.13965
0.13802674
0.13501353
0.13115115
0.1264505
0.12057145
0.11305333
0.1034673
0.091477974
0.076864198
0.059561714
0.039840458
0.016791849
0.13997386
0.13831338
0.13521621
0.13123725
0.1264139
0.12043178
0.11284614
0.10323384
0.091257606
0.076688907
0.059451021
0.039795862
0.016791488
0.14022091
0.1385266
0.13535331
0.13126891
0.12633517
0.12026164
0.11261862
0.10298831
0.091031475
0.076512093
0.05934092
0.039752041
0.016790872
0.14039814
0.13867311
0.13543095
0.1312515
0.1262189
0.12006496
0.11237407
0.10273341
0.090801628
0.076335141
0.059232171
0.039709267
0.016790031
0.14051213
0.13875926
0.13545496
0.13119011
0.12606947
0.11984545
0.11211558
0.10247162
0.090569941
0.076159301
0.059125445
0.039667768
0.016788996
0.14056907
0.13879104
0.13543081
0.13108955
0.12589099
0.11960658
0.11184603
0.10220525
0.090338116
0.075985682
0.059021321
0.039627734
0.016787793
0.1405748
0.13877408
0.13536366
0.13095435
0.12568733
0.1193516
0.11156811
0.1019364
0.090107676
0.075815248
0.058920248
0.039589108
0.016786449
0.14053479
0.13871364
0.13525838
0.13078878
0.12546212
0.11908355
0.11128426
0.10166697
0.089879976
0.075648822
0.058822579
0.039551841
0.016784984
0.14045414
0.13861467
0.13511948
0.13059683
0.12521875
0.11880521
0.11099673
0.10139865
0.089656184
0.07548704
0.058728337
0.039516222
0.016783418
0.14033763
0.13848179
0.13495124
0.13038221
0.12496038
0.11851919
0.11070756
0.10113299
0.089437326
0.075330483
0.058637862
0.039482377
0.01678177
0.1401897
0.13831929
0.13475758
0.1301484
0.12468992
0.11822785
0.11041861
0.1008713
0.089224191
0.075179274
0.058551587
0.039450397
0.016780061
0.14001449
0.13813116
0.13454221
0.12989862
0.12441007
0.11793336
0.11013152
0.10061472
0.089017411
0.075034109
0.058469658
0.039420333
0.016778309
0.13981582
0.13792111
0.13430851
0.12963584
0.12412331
0.11763769
0.10984776
0.10036424
0.088817526
0.074895447
0.058392201
0.039392218
0.016776533
0.13959725
0.13769257
0.13405964
0.1293628
0.12383189
0.11734259
0.10956855
0.1001205
0.088625339
0.074763535
0.058319296
0.039366062
0.016774746
0.13936204
0.13744869
0.1337985
0.12908202
0.12353787
0.11704962
0.10929493
0.099884458
0.088441314
0.074638551
0.05825098
0.039341856
0.016772962
0.13911321
0.13719239
0.13352777
0.1287958
0.1232431
0.11676011
0.10902791
0.099656896
0.088265798
0.07452061
0.058187252
0.039319575
0.016771194
0.13885352
0.13692633
0.13324985
0.12850619
0.12294918
0.11647524
0.10876855
0.09943837
0.088099045
0.07440977
0.058128076
0.039299178
0.016769451
0.1385855
0.13665295
0.13296697
0.12821504
0.12265752
0.11619633
0.10851767
0.099229319
0.087941229
0.074306034
0.058073388
0.039280613
0.016767743
0.13831143
0.13637441
0.13268103
0.12792397
0.12236965
0.11592444
0.10827593
0.09903008
0.087792446
0.074209357
0.058023094
0.039263819
0.016766076
0.13803333
0.13609265
0.13239385
0.12763466
0.12208686
0.11566047
0.10804385
0.098840894
0.087652724
0.074119648
0.05797708
0.039248727
0.016764458
0.13775306
0.13580951
0.13210716
0.12734857
0.12181025
0.11540517
0.10782188
0.098661916
0.087522029
0.074036778
0.057935213
0.039235262
0.016762894
0.13747235
0.13552666
0.13182249
0.12706698
0.12154082
0.11515918
0.10761033
0.098493221
0.08740027
0.073960587
0.057897341
0.039223344
0.016761387
0.13719275
0.13524562
0.13154122
0.12679105
0.12127939
0.11492302
0.10740944
0.098334812
0.087287311
0.073890881
0.057863302
0.039212892
0.016759941
0.13691569
0.13496776
0.13126457
0.12652176
0.12102668
0.1146971
0.10721934
0.098186629
0.087182969
0.073827447
0.057832924
0.039203821
0.016758559
0.13664243
0.13469429
0.13099363
0.12625999
0.12078328
0.11448173
0.10704011
0.098048558
0.087087029
0.073770051
0.057806027
0.039196046
0.016757243
0.13637411
0.13442629
0.13072936
0.12600647
0.12054967
0.11427714
0.10687174
0.097920435
0.086999246
0.073718447
0.057782429
0.039189485
0.016755993
0.13611172
0.13416473
0.13047257
0.12576183
0.12032625
0.11408347
0.10671417
0.097802055
0.08691935
0.073672377
0.057761948
0.039184056
0.016754811
0.13585616
0.13391042
0.13022398
0.12552661
0.1201133
0.11390079
0.10656728
0.09769318
0.086847053
0.073631579
0.057744401
0.03917968
0.016753696
0.13560818
0.13366408
0.1299842
0.12530122
0.11991106
0.11372912
0.10643091
0.097593537
0.086782052
0.073595784
0.057729605
0.039176278
0.016752649
0.13536844
0.13342634
0.12975372
0.12508601
0.11971964
0.11356839
0.10630486
0.097502831
0.086724029
0.073564722
0.057717381
0.039173776
0.01675167
0.13513748
0.13319768
0.12953295
0.12488122
0.11953913
0.11341849
0.10618887
0.097420738
0.086672656
0.073538119
0.057707553
0.039172101
0.016750756
0.13491577
0.13297854
0.12932221
0.12468703
0.11936952
0.11327927
0.10608267
0.097346916
0.086627597
0.0735157
0.057699944
0.039171181
0.016749908
0.13470366
0.13276922
0.12912174
0.12450353
0.11921075
0.1131505
0.10598593
0.097281004
0.086588507
0.073497192
0.057694383
0.039170946
0.016749124
0.13450142
0.13256998
0.12893168
0.12433075
0.11906269
0.11303195
0.10589832
0.097222629
0.086555039
0.073482321
0.057690699
0.039171329
0.016748402
0.13430926
0.13238097
0.12875213
0.12416865
0.11892519
0.11292332
0.10581947
0.097171408
0.086526844
0.073470821
0.057688729
0.039172267
0.01674774
0.13412729
0.13220229
0.1285831
0.12401716
0.11879802
0.1128243
0.10574901
0.097126953
0.08650358
0.07346243
0.057688317
0.039173697
0.016747136
0.13395558
0.13203396
0.12842456
0.12387612
0.11868095
0.11273456
0.10568655
0.097088879
0.08648491
0.0734569
0.057689315
0.039175565
0.016746587
0.13379413
0.13187597
0.12827642
0.12374537
0.11857369
0.11265373
0.10563169
0.097056804
0.086470506
0.07345399
0.057691583
0.039177819
0.016746093
0.13364288
0.13172824
0.12813855
0.12362469
0.11847595
0.11258145
0.10558405
0.097030349
0.086460052
0.073453472
0.057694991
0.039180411
0.016745649
0.13350174
0.13159064
0.12801076
0.12351382
0.1183874
0.11251733
0.10554322
0.097009142
0.086453239
0.073455127
0.057699414
0.039183297
0.016745255
0.13337056
0.13146301
0.12789286
0.12341248
0.11830768
0.11246099
0.1055088
0.096992816
0.086449767
0.073458743
0.057704734
0.039186433
0.016744907
0.13324916
0.13134514
0.12778457
0.12332036
0.11823643
0.11241202
0.10548039
0.096981003
0.086449338
0.073464113
0.057710834
0.039189779
0.016744604
0.13313729
0.13123679
0.12768563
0.12323713
0.11817326
0.11237
0.10545757
0.096973341
0.086451664
0.073471036
0.057717603
0.039193292
0.016744344
0.13303471
0.13113767
0.12759571
0.12316242
0.11811776
0.11233452
0.10543995
0.096969472
0.08645646
0.073479316
0.057724931
0.039196933
0.016744122
0.13294112
0.13104749
0.12751448
0.12309585
0.11806954
0.11230515
0.10542713
0.096969051
0.086463455
0.073488767
0.057732716
0.039200665
0.016743937
0.13285622
0.13096592
0.12744158
0.12303704
0.11802817
0.11228148
0.10541872
0.096971745
0.086472393
0.073499218
0.057740864
0.039204454
0.016743786
0.13277968
0.13089262
0.12737666
0.12298561
0.11799326
0.11226312
0.10541435
0.096977246
0.086483037
0.073510512
0.057749294
0.039208273
0.016743666
0.13271117
0.13082726
0.12731936
0.12294117
0.11796441
0.11224967
0.10541369
0.096985266
0.086495175
0.073522513
0.057757937
0.039212102
0.016743575
0.13265037
0.1307695
0.12726932
0.12290334
0.11794124
0.11224079
0.10541639
0.096995543
0.086508615
0.073535102
0.057766735
0.039215925
0.01674351
0.13259693
0.13071898
0.12722618
0.12287175
0.11792338
0.11223612
0.10542218
0.097007833
0.086523182
0.073548173
0.05777564
0.039219731
0.016743471
0.1325505
0.13067536
0.12718958
0.12284605
0.11791048
0.11223533
0.10543074
0.097021905
0.086538713
0.073561627
0.057784607
0.039223506
0.016743456
0.13251074
0.13063826
0.12715914
0.12282584
0.11790216
0.11223807
0.1054418
0.097037531
0.086555046
0.073575365
0.057793588
0.039227238
0.016743463
0.13247725
0.13060733
0.12713447
0.12281074
0.11789806
0.11224402
0.10545505
0.09705448
0.086572016
0.073589286
0.057802532
0.03923091
0.016743491
0.13244965
0.13058214
0.12711519
0.12280037
0.11789779
0.11225282
0.10547022
0.097072517
0.086589452
0.07360328
0.057811383
0.039234499
0.016743538
0.13242752
0.13056229
0.12710087
0.12279431
0.11790098
0.11226414
0.10548699
0.097091408
0.086607183
0.073617236
0.057820079
0.039237981
0.016743601
0.13241046
0.13054737
0.1270911
0.12279216
0.11790724
0.11227762
0.10550509
0.097110926
0.086625044
0.073631047
0.057828562
0.039241334
0.016743678
0.13239803
0.13053697
0.12708548
0.12279353
0.1179162
0.11229295
0.10552425
0.097130861
0.086642888
0.07364462
0.057836785
0.03924454
0.016743765
0.13238987
0.13053068
0.12708361
0.12279804
0.11792755
0.11230984
0.10554423
0.097151038
0.086660592
0.073657883
0.057844712
0.03924759
0.016743861
0.1323856
0.13052817
0.12708516
0.12280538
0.11794097
0.11232804
0.10556483
0.097171315
0.086678069
0.073670791
0.057852327
0.039250474
0.016743962
0.13238492
0.13052909
0.1270898
0.12281526
0.11795622
0.11234735
0.10558591
0.097191591
0.086695262
0.07368332
0.057859627
0.03925318
0.016744069
0.13238753
0.13053319
0.12709727
0.12282741
0.11797309
0.11236759
0.10560733
0.097211793
0.086712136
0.073695463
0.057866605
0.039255735
0.01674418
0.13239318
0.13054019
0.12710733
0.12284164
0.11799138
0.11238863
0.10562902
0.097231867
0.086728674
0.073707223
0.057873273
0.039258155
0.016744295
0.13240163
0.13054987
0.12711975
0.12285772
0.11801094
0.11241033
0.10565087
0.097251762
0.086744851
0.073718582
0.05787966
0.039260454
0.016744414
0.13241264
0.13056199
0.1271343
0.12287546
0.11803158
0.11243256
0.10567279
0.097271416
0.086760633
0.07372954
0.057885772
0.039262637
0.016744538
0.13242596
0.13057629
0.12715074
0.12289464
0.11805312
0.11245516
0.10569466
0.097290744
0.086775954
0.07374009
0.057891604
0.039264707
0.016744666
0.1324413
0.1305925
0.12716881
0.12291501
0.11807534
0.11247796
0.10571635
0.097309639
0.08679077
0.073750199
0.057897141
0.039266657
0.016744798
0.13245837
0.13061034
0.12718824
0.12293632
0.11809802
0.11250078
0.10573771
0.097327995
0.086805019
0.073759823
0.057902361
0.03926848
0.016744932
0.13247685
0.13062948
0.12720872
0.12295831
0.11812094
0.11252341
0.10575857
0.097345721
0.086818632
0.073768921
0.057907242
0.039270166
0.016745067
0.13249644
0.13064964
0.12722998
0.12298071
0.11814386
0.11254568
0.10577882
0.097362726
0.086831548
0.073777457
0.057911765
0.039271707
0.0167452
0.13251682
0.13067051
0.12725174
0.12300329
0.11816658
0.11256743
0.10579835
0.097378937
0.08684372
0.073785405
0.05791592
0.039273097
0.016745331
0.13253774
0.13069185
0.12727377
0.12302583
0.11818894
0.11258856
0.10581708
0.097394308
0.086855128
0.073792761
0.057919708
0.03927434
0.016745456
0.13255898
0.13071343
0.12729586
0.12304817
0.11821083
0.11260897
0.10583498
0.097408822
0.086865773
0.073799534
0.057923139
0.039275442
0.016745577
0.13258038
0.1307351
0.12731788
0.12307021
0.11823216
0.11262865
0.10585203
0.09742249
0.086875679
0.073805754
0.057926239
0.039276415
0.016745691
0.13260179
0.13075672
0.12733971
0.12309187
0.1182529
0.11264756
0.10586823
0.097435343
0.086884888
0.073811459
0.057929036
0.039277276
0.0167458
0.13262315
0.13077824
0.12736131
0.1231131
0.11827304
0.11266572
0.10588363
0.097447425
0.086893447
0.073816697
0.057931565
0.039278041
0.016745905
0.13264438
0.13079958
0.12738261
0.12313388
0.11829255
0.11268314
0.10589825
0.09745878
0.086901405
0.073821509
0.057933857
0.039278725
0.016746005
0.13266544
0.13082069
0.12740358
0.12315418
0.11831143
0.11269984
0.10591212
0.097469443
0.086908801
0.07382593
0.057935935
0.039279338
0.016746102
0.13268627
0.13084152
0.12742417
0.12317396
0.11832967
0.1127158
0.10592526
0.097479436
0.086915658
0.073829981
0.057937814
0.039279888
0.016746197
0.13270679
0.130862
0.12744431
0.12319317
0.11834722
0.11273102
0.10593765
0.097488763
0.086921984
0.07383367
0.057939499
0.039280373
0.016746289
0.13272692
0.13088204
0.12746393
0.12321175
0.11836404
0.11274546
0.10594927
0.097497415
0.086927777
0.073836996
0.057940988
0.039280792
0.016746377
0.13274656
0.13090156
0.12748294
0.12322962
0.11838008
0.11275908
0.10596011
0.097505376
0.086933026
0.073839951
0.057942273
0.039281138
0.016746462
0.13276561
0.13092047
0.12750127
0.12324672
0.11839528
0.11277184
0.10597014
0.097512632
0.086937722
0.073842528
0.05794335
0.039281408
0.016746543
0.132784
0.13093867
0.12751884
0.123263
0.1184096
0.11278372
0.10597935
0.097519179
0.086941865
0.073844726
0.057944217
0.039281599
0.016746617
0.13280165
0.13095612
0.1275356
0.1232784
0.11842302
0.11279472
0.10598774
0.097525031
0.086945468
0.073846559
0.057944879
0.039281714
0.016746686
0.13281854
0.13097278
0.12755152
0.12329294
0.11843554
0.11280485
0.10599534
0.097530218
0.086948563
0.073848049
0.057945355
0.03928176
0.016746748
0.13283465
0.13098864
0.12756662
0.12330661
0.11844721
0.11281415
0.1060022
0.097534793
0.086951197
0.073849235
0.057945668
0.039281749
0.016746804
0.13284999
0.13100371
0.1275809
0.12331945
0.11845806
0.1128227
0.10600839
0.097538818
0.086953426
0.073850162
0.057945848
0.039281696
0.016746855
0.13286459
0.13101803
0.12759441
0.12333151
0.11846815
0.11283054
0.10601398
0.097542361
0.086955308
0.073850876
0.057945926
0.039281614
0.016746901
0.13287847
0.13103162
0.12760718
0.12334284
0.11847753
0.11283774
0.10601902
0.097545482
0.086956898
0.073851418
0.05794593
0.039281517
0.016746944
0.13289164
0.1310445
0.12761924
0.12335347
0.11848626
0.11284435
0.10602357
0.097548228
0.086958235
0.073851818
0.057945877
0.039281411
0.016746984
0.1329041
0.13105666
0.12763058
0.12336341
0.11849434
0.1128504
0.10602766
0.097550625
0.086959342
0.073852095
0.057945779
0.039281302
0.016747022
0.13291582
0.13106808
0.12764119
0.12337264
0.11850178
0.11285588
0.10603128
0.097552681
0.086960225
0.07385225
0.057945634
0.039281185
0.016747059
0.13292673
0.13107871
0.12765104
0.12338114
0.11850854
0.11286078
0.10603444
0.097554384
0.086960871
0.073852272
0.057945434
0.039281057
0.016747094
0.13293677
0.13108848
0.12766005
0.12338886
0.1185146
0.11286506
0.10603709
0.097555711
0.086961262
0.073852144
0.057945165
0.039280906
0.016747127
0.13294588
0.13109734
0.12766818
0.12339575
0.1185199
0.1128687
0.10603922
0.097556636
0.086961374
0.073851846
0.05794481
0.039280725
0.016747156
0.13295401
0.13110524
0.12767538
0.12340177
0.11852443
0.11287167
0.1060408
0.097557141
0.08696119
0.073851363
0.057944358
0.039280506
0.016747181
0.13296114
0.13111215
0.12768164
0.12340692
0.11852817
0.11287397
0.10604183
0.097557226
0.086960709
0.073850691
0.057943805
0.039280247
0.016747201
0.1329673
0.13111811
0.12768698
0.12341121
0.11853114
0.11287561
0.10604233
0.097556909
0.086959944
0.07384984
0.057943154
0.039279948
0.016747215
0.13297256
0.13112318
0.12769146
0.1234147
0.11853341
0.11287666
0.10604236
0.097556232
0.086958929
0.073848832
0.057942421
0.039279617
0.016747223
0.13297705
0.13112747
0.12769519
0.1234175
0.11853506
0.11287719
0.10604198
0.097555258
0.086957715
0.073847704
0.057941627
0.039279263
0.016747226
0.1329809
0.13113112
0.12769829
0.12341972
0.11853622
0.11287732
0.10604129
0.097554067
0.086956364
0.073846502
0.057940802
0.0392789
0.016747224
0.1329843
0.13113429
0.12770093
0.1234215
0.118537
0.11287715
0.10604039
0.097552744
0.086954944
0.073845277
0.057939977
0.039278545
0.016747219
0.1329874
0.13113716
0.12770325
0.123423
0.11853755
0.11287681
0.10603939
0.097551376
0.086953524
0.073844077
0.057939183
0.039278209
0.016747213
0.13299037
0.13113987
0.1277054
0.12342435
0.11853798
0.11287641
0.10603837
0.097550035
0.086952161
0.073842944
0.057938446
0.039277906
0.016747206
0.1329933
0.13114252
0.12770749
0.12342564
0.11853839
0.11287601
0.1060374
0.097548778
0.086950896
0.073841906
0.057937783
0.039277643
0.0167472
0.13299627
0.1311452
0.12770959
0.12342694
0.11853882
0.11287568
0.10603653
0.097547635
0.086949753
0.073840979
0.057937203
0.039277421
0.016747196
0.13299928
0.1311479
0.1277117
0.12342827
0.11853931
0.11287543
0.10603575
0.097546613
0.086948733
0.073840162
0.057936703
0.039277241
0.016747195
0.13300227
0.13115059
0.12771381
0.1234296
0.11853982
0.11287523
0.10603507
0.097545689
0.086947817
0.073839439
0.057936271
0.039277095
0.016747196
0.13300515
0.13115317
0.12771582
0.12343086
0.11854029
0.11287504
0.10603441
0.097544825
0.08694697
0.073838782
0.05793589
0.039276972
0.016747199
0.13300778
0.13115554
0.12771765
0.12343197
0.11854066
0.11287478
0.10603373
0.097543965
0.086946147
0.073838154
0.057935533
0.039276862
0.016747204
0.13301002
0.13115754
0.12771915
0.12343281
0.11854081
0.11287436
0.10603295
0.097543048
0.086945295
0.073837517
0.057935174
0.03927675
0.016747209
0.13301173
0.13115906
0.12772023
0.12343329
0.11854068
0.11287373
0.10603201
0.097542017
0.086944369
0.073836832
0.057934787
0.039276622
0.016747213
0.1330128
0.13115998
0.12772078
0.12343332
0.11854018
0.11287281
0.10603086
0.09754083
0.086943331
0.073836071
0.057934352
0.039276465
0.016747214
0.13301318
0.13116025
0.12772075
0.12343286
0.11853928
0.11287157
0.10602946
0.097539466
0.086942166
0.07383522
0.057933854
0.03927627
0.016747211
0.13301285
0.13115986
0.12772013
0.1234319
0.11853797
0.11287003
0.10602784
0.097537934
0.086940879
0.07383428
0.057933293
0.039276041
0.016747204
0.13301187
0.13115885
0.12771897
0.12343049
0.11853631
0.11286821
0.10602601
0.097536264
0.086939496