/*--------------------------------*- C++ -*----------------------------------*\
| =========                 |                                                 |
| \\      /  F ield         | OpenFOAM: The Open Source CFD Toolbox           |
|  \\    /   O peration     | Version:  2506                                  |
|   \\  /    A nd           | Website:  www.openfoam.com                      |
|    \\/     M anipulation  |                                                 |
\*---------------------------------------------------------------------------*/
FoamFile
{
    version     2.0;
    format      ascii;
    arch        "LSB;label=32;scalar=64";
    class       volScalarField;
    location    "10000/water";
    object      epsilon;
}
// * * * * * * * * * * * * * * * * * * * * * * * * * * * * * * * * * * * * * //

dimensions      [0 2 -3 0 0 0 0];

internalField   nonuniform List<scalar> 
2600
(
8.8079773e-05
8.8079245e-05
8.8079271e-05
8.807949e-05
8.8079744e-05
8.8080245e-05
8.8082926e-05
8.8104349e-05
8.8272771e-05
8.9512908e-05
9.8428186e-05
0.00017145296
0.0010138716
6.7789348e-05
6.7791881e-05
6.7793339e-05
6.7794963e-05
6.7796901e-05
6.7799886e-05
6.7810178e-05
6.7875511e-05
6.8312468e-05
7.1039872e-05
8.7857083e-05
0.00021159534
0.0014669324
5.3500886e-05
5.3503148e-05
5.3504846e-05
5.3506859e-05
5.3509287e-05
5.3513643e-05
5.3532992e-05
5.3656306e-05
5.4399641e-05
5.8506995e-05
8.1500797e-05
0.00023956052
0.0017068244
4.3127504e-05
4.3128883e-05
4.3130503e-05
4.3132598e-05
4.3135149e-05
4.3140834e-05
4.3171684e-05
4.3362646e-05
4.4413342e-05
4.9710824e-05
7.7552644e-05
0.00025818579
0.0017816909
3.539909e-05
3.5400132e-05
3.5401605e-05
3.5403513e-05
3.5405834e-05
3.5412916e-05
3.5457613e-05
3.5722605e-05
3.7073304e-05
4.3450503e-05
7.5629285e-05
0.00027290618
0.0017622817
2.9510599e-05
2.9511446e-05
2.95127e-05
2.9514227e-05
2.9516143e-05
2.9525119e-05
2.9586798e-05
2.9933924e-05
3.159515e-05
3.9095388e-05
7.5939385e-05
0.00028837858
0.0017002497
2.4935213e-05
2.4935877e-05
2.4936847e-05
2.4937875e-05
2.4939416e-05
2.4951342e-05
2.503458e-05
2.5477125e-05
2.7489448e-05
3.6318413e-05
7.8818158e-05
0.0003073199
0.0016256765
2.1318423e-05
2.1318913e-05
2.1319549e-05
2.132003e-05
2.1321464e-05
2.1338095e-05
2.144948e-05
2.2008273e-05
2.4447975e-05
3.4968795e-05
8.4593389e-05
0.00033066897
0.0015541994
1.8415642e-05
1.8415958e-05
1.8416233e-05
1.8416208e-05
1.8418091e-05
1.8442025e-05
1.8590687e-05
1.9295945e-05
2.2279378e-05
3.5010665e-05
9.3512814e-05
0.00035786641
0.0014930959
1.6054297e-05
1.6054439e-05
1.6054351e-05
1.6053968e-05
1.6057197e-05
1.6092028e-05
1.6290179e-05
1.7183376e-05
2.0872546e-05
3.6486908e-05
0.00010564207
0.00038720676
0.0014449141
1.411016e-05
1.4110129e-05
1.4109712e-05
1.4109249e-05
1.4115119e-05
1.4165612e-05
1.4429188e-05
1.5565379e-05
2.0175367e-05
3.9486471e-05
0.00012074249
0.00041640751
0.0014094648
1.249217e-05
1.2491978e-05
1.249131e-05
1.24912e-05
1.2501471e-05
1.2573786e-05
1.2923263e-05
1.4374121e-05
2.0181311e-05
4.4103574e-05
0.00013819401
0.0004433175
0.0013850187
1.1132483e-05
1.1132152e-05
1.1131368e-05
1.1132227e-05
1.1149209e-05
1.1251189e-05
1.1712642e-05
1.3570321e-05
2.0918928e-05
5.0386672e-05
0.00015703479
0.00046647967
0.0013691707
9.9797899e-06
9.9793621e-06
9.9786681e-06
9.9813266e-06
1.0007987e-05
1.0149541e-05
1.0756002e-05
1.3137755e-05
2.2440689e-05
5.8285037e-05
0.00017613324
0.00048532286
0.0013594869
8.994766e-06
8.994305e-06
8.9939894e-06
8.9995396e-06
9.0396464e-06
9.2332357e-06
1.0026406e-05
1.3079617e-05
2.4808572e-05
6.7609618e-05
0.00019442665
0.00050000486
0.0013539038
8.1468971e-06
8.1464947e-06
8.1469469e-06
8.1567947e-06
8.2150975e-06
8.4763588e-06
9.5087285e-06
1.3415553e-05
2.807526e-05
7.8026842e-05
0.0002111215
0.00051110137
0.0013508788
7.4122408e-06
7.412023e-06
7.4137548e-06
7.4296903e-06
7.5121568e-06
7.8606834e-06
9.1980664e-06
1.4178292e-05
3.2262331e-05
8.9094589e-05
0.00022578147
0.00051932558
0.0013493668
6.7718206e-06
6.7719549e-06
6.7756276e-06
6.7999151e-06
6.9140283e-06
7.3743439e-06
9.0987625e-06
1.5408888e-05
3.7339829e-05
0.00010033156
0.00023829849
0.00052535583
0.0013487149
6.2104575e-06
6.2111621e-06
6.2176208e-06
6.2531142e-06
6.4082476e-06
7.0110033e-06
9.2236697e-06
1.7149875e-05
4.3213606e-05
0.00011129559
0.0002487951
0.00052976262
0.0013485457
5.7159095e-06
5.7174657e-06
5.7277834e-06
5.7780724e-06
5.9859581e-06
6.7693776e-06
9.5932705e-06
1.9436232e-05
4.9726067e-05
0.00012164393
0.00025751549
0.00053299526
0.0013486594
5.2782322e-06
5.2809984e-06
5.2965329e-06
5.3661281e-06
5.6414368e-06
6.6530082e-06
1.0234238e-05
2.228513e-05
5.6672015e-05
0.00013115952
0.00026474159
0.00053539449
0.0013489619
4.889296e-06
4.893728e-06
4.9161934e-06
5.0107595e-06
5.3718124e-06
6.6701644e-06
1.1177041e-05
2.5686552e-05
6.3825676e-05
0.00013974422
0.00027074337
0.00053721257
0.0013494179
4.5424222e-06
4.549097e-06
4.5806559e-06
4.707302e-06
5.1769356e-06
6.8337315e-06
1.2452335e-05
2.9597476e-05
7.0970788e-05
0.00014739148
0.0002757568
0.00053863279
0.0013500205
4.2321037e-06
4.2417515e-06
4.2851315e-06
4.4527719e-06
5.0593678e-06
7.1609027e-06
1.4086151e-05
3.3941829e-05
7.7925112e-05
0.00015415333
0.00027997823
0.00053978641
0.0013507744
3.9537926e-06
3.9673375e-06
4.0259782e-06
4.2457763e-06
5.0244498e-06
7.6724684e-06
1.6094424e-05
3.8616919e-05
8.4553952e-05
0.00016011197
0.00028356675
0.00054076616
0.0013516866
3.7037376e-06
3.7223496e-06
3.8005873e-06
4.0864974e-06
5.0804009e-06
8.3914976e-06
1.8477844e-05
4.3504912e-05
9.0772062e-05
0.00016536002
0.00028664927
0.00054163686
0.0013527623
3.4788613e-06
3.504022e-06
3.6073203e-06
3.9767408e-06
5.2383695e-06
9.3412708e-06
2.1218352e-05
4.8486365e-05
9.6537096e-05
0.00016998886
0.00028932619
0.00054244335
0.0013540034
3.2766694e-06
3.3102566e-06
3.4454921e-06
3.9200366e-06
5.512335e-06
1.0542479e-05
2.4278371e-05
5.3452377e-05
0.00010183911
0.00017408281
0.00029167657
0.00054321638
0.0013554084
3.0951868e-06
3.1395803e-06
3.315394e-06
3.9217755e-06
5.9187332e-06
1.2009945e-05
2.7603267e-05
5.8312863e-05
0.0001066899
0.0001777168
0.00029376257
0.00054397676
0.0013569729
2.9329181e-06
2.991133e-06
3.2183574e-06
3.9893517e-06
6.4756802e-06
1.3749403e-05
3.112658e-05
6.3000085e-05
0.00011111418
0.0001809559
0.00029563313
0.00054473837
0.0013586903
2.7888292e-06
2.8646819e-06
3.1568533e-06
4.132263e-06
7.2016968e-06
1.5755029e-05
3.4776807e-05
6.7468123e-05
0.00011514328
0.00018385585
0.00029732665
0.00054550992
0.0013605531
2.6623516e-06
2.7606641e-06
3.1346228e-06
4.362102e-06
8.1139274e-06
1.8008403e-05
3.8484155e-05
7.1689804e-05
0.00011881108
0.00018646428
0.00029887504
0.00054629401
0.0013625491
2.5534087e-06
2.680258e-06
3.1568304e-06
4.6923496e-06
9.2259797e-06
2.0479254e-05
4.2185899e-05
7.5652554e-05
0.00012215122
0.00018882083
0.00030030031
0.00054708343
0.001364665
2.4624667e-06
2.6254826e-06
3.2302146e-06
5.1378782e-06
1.0545684e-05
2.3127917e-05
4.5829651e-05
7.9354438e-05
0.00012519597
0.00019095973
0.00030162122
0.00054787012
0.0013668874
2.3906118e-06
2.5993266e-06
3.3632045e-06
5.7140888e-06
1.2073206e-05
2.5908983e-05
4.9374526e-05
8.2800766e-05
0.00012797521
0.0001929092
0.00030285018
0.00054865287
0.0013692048
2.3396576e-06
2.6059009e-06
3.5659449e-06
6.4356561e-06
1.379994e-05
2.8775318e-05
5.2790668e-05
8.6001442e-05
0.00013051585
0.00019469159
0.00030399376
0.00054944272
0.0013716092
2.3122834e-06
2.6506067e-06
3.8501616e-06
7.3149526e-06
1.5708512e-05
3.1681692e-05
5.6057926e-05
8.8969441e-05
0.00013284315
0.00019632773
0.00030505437
0.00055025018
0.0013740956
2.3122039e-06
2.740297e-06
4.2287853e-06
8.3603375e-06
1.777392e-05
3.4587407e-05
5.9163894e-05
9.1718484e-05
0.000134977
0.0001978295
0.00030604752
0.00055107622
0.0013766577
2.3443664e-06
2.8833942e-06
4.7152656e-06
9.5746039e-06
1.9965608e-05
3.7457894e-05
6.2102575e-05
9.4263947e-05
0.00013693775
0.00019920349
0.00030698675
0.00055192215
0.0013792894
2.4151612e-06
3.0899098e-06
5.322544e-06
1.0953904e-05
2.2249993e-05
4.026506e-05
6.4872079e-05
9.6618924e-05
0.00013873802
0.00020046565
0.00030788006
0.00055278756
0.0013819844
2.5326204e-06
3.371289e-06
6.0617305e-06
1.2487421e-05
2.4593018e-05
4.2987257e-05
6.7474461e-05
9.8797812e-05
0.00014038632
0.00020163083
0.00030873381
0.00055367121
0.0013847362
2.7065544e-06
3.7399969e-06
6.9406287e-06
1.4157863e-05
2.6962172e-05
4.5608169e-05
6.9912765e-05
0.00010081055
0.00014189658
0.00020271014
0.00030955281
0.00055457137
0.0013875384
2.9485501e-06
4.208776e-06
7.9623501e-06
1.5942734e-05
2.9328091e-05
4.8116704e-05
7.2192972e-05
0.0001026631
0.00014328329
0.00020371266
0.00031034058
0.00055548595
0.0013903847
3.2717206e-06
4.7895534e-06
9.1242821e-06
1.7815987e-05
3.1665001e-05
5.0504533e-05
7.431848e-05
0.00010436656
0.00014455809
0.0002046458
0.0003110997
0.00055641259
0.0013932686
3.6900857e-06
5.4920729e-06
1.0417683e-05
1.9750012e-05
3.3951699e-05
5.2768184e-05
7.6289669e-05
0.00010593299
0.00014573089
0.00020551555
0.00031183197
0.00055734877
0.0013961839
4.2174849e-06
6.3224281e-06
1.1827952e-05
2.1717141e-05
3.6170246e-05
5.490116e-05
7.8113758e-05
0.00010737249
0.00014680994
0.00020632674
0.00031253851
0.00055829181
0.0013991243
4.8660265e-06
7.2817751e-06
1.3335594e-05
2.3691124e-05
3.8306689e-05
5.6898168e-05
7.9798305e-05
0.0001086939
0.00014780214
0.00020708321
0.00031321994
0.00055923891
0.0014020837
5.6442502e-06
8.3655574e-06
1.4917867e-05
2.5648781e-05
4.0344258e-05
5.8760208e-05
8.13501e-05
0.00010990478
0.00014871322
0.00020778792
0.00031387636
0.00056018714
0.0014050556
6.5553605e-06
9.563461e-06
1.6550687e-05
2.7565322e-05
4.2272542e-05
6.0488809e-05
8.2775229e-05
0.00011101156
0.00014954783
0.00020844309
0.00031450745
0.00056113342
0.0014080338
7.5961551e-06
1.0860443e-05
1.820737e-05
2.9419103e-05
4.408453e-05
6.2085815e-05
8.4079035e-05
0.0001120196
0.00015030969
0.00020905022
0.00031511249
0.00056207455
0.0014110119
8.7563171e-06
1.2235552e-05
1.9861233e-05
3.1193217e-05
4.5774965e-05
6.3553181e-05
8.5266112e-05
0.00011293328
0.00015100165
0.00020961024
0.00031569038
0.00056300712
0.0014139832
1.0017524e-05
1.3664336e-05
2.1488449e-05
3.2873859e-05
4.7340054e-05
6.4892867e-05
8.6340347e-05
0.00011375612
0.0001516258
0.00021012347
0.00031623966
0.00056392756
0.0014169405
1.1355903e-05
1.5121212e-05
2.3068172e-05
3.4450178e-05
4.8777289e-05
6.6106811e-05
8.7304984e-05
0.00011449085
0.00015218355
0.00021058974
0.00031675852
0.00056483204
0.0014198766
1.2744266e-05
1.6581082e-05
2.4582902e-05
3.5914123e-05
5.0085354e-05
6.7196969e-05
8.8162737e-05
0.00011513953
0.00015267569
0.00021100842
0.00031724482
0.00056571652
0.0014227834
1.4154482e-05
1.8020638e-05
2.6018604e-05
3.7260264e-05
5.1264091e-05
6.8165412e-05
8.891593e-05
0.00011570369
0.00015310252
0.00021137848
0.00031769615
0.00056657674
0.0014256524
1.5559581e-05
1.9419302e-05
2.7364606e-05
3.8485597e-05
5.2314488e-05
6.9014448e-05
8.9566663e-05
0.0001161845
0.000153464
0.00021169859
0.00031810988
0.00056740821
0.0014284744
1.6935339e-05
2.0759786e-05
2.8613377e-05
3.9589302e-05
5.3238668e-05
6.9746755e-05
9.0116986e-05
0.00011658288
0.00015375982
0.00021196723
0.00031848322
0.00056820632
0.0014312396
1.8261269e-05
2.2028325e-05
2.9760206e-05
4.0572477e-05
5.4039841e-05
7.0365495e-05
9.0569076e-05
0.00011689975
0.00015398961
0.00021218284
0.00031881337
0.00056896638
0.0014339377
1.9521048e-05
2.3214635e-05
3.0802835e-05
4.1437841e-05
5.4722227e-05
7.0874392e-05
9.0925391e-05
0.00011713613
0.00015415307
0.0002123439
0.00031909759
0.00056968378
0.0014365579
2.0702516e-05
2.4311688e-05
3.1741086e-05
4.2189436e-05
5.5290938e-05
7.1277773e-05
9.1188792e-05
0.00011729337
0.00015425016
0.00021244916
0.00031933341
0.00057035412
0.0014390892
2.1797371e-05
2.5315354e-05
3.257649e-05
4.2832333e-05
5.5751829e-05
7.158056e-05
9.1362628e-05
0.00011737319
0.0001542812
0.00021249774
0.00031951874
0.00057097333
0.0014415208
2.2800695e-05
2.6223985e-05
3.3311943e-05
4.3372364e-05
5.6111339e-05
7.1788221e-05
9.1450781e-05
0.00011737787
0.00015424704
0.00021248928
0.00031965203
0.00057153792
0.001443842
2.3710405e-05
2.7037979e-05
3.395139e-05
4.3815876e-05
5.6376318e-05
7.1906694e-05
9.145766e-05
0.00011731023
0.00015414912
0.00021242402
0.00031973235
0.00057204502
0.0014460427
2.4526704e-05
2.7759363e-05
3.4499557e-05
4.4169531e-05
5.6553872e-05
7.1942286e-05
9.1388173e-05
0.00011717368
0.00015398952
0.00021230292
0.00031975956
0.0005724926
0.0014481141
2.5251564e-05
2.8391405e-05
3.4961709e-05
4.4440132e-05
5.6651215e-05
7.1901562e-05
9.1247659e-05
0.00011697222
0.000153771
0.00021212769
0.00031973429
0.00057287949
0.0014500482
2.5888279e-05
2.8938288e-05
3.5343457e-05
4.4634488e-05
5.6675547e-05
7.1791237e-05
9.1041805e-05
0.00011671034
0.00015349695
0.00021190076
0.00031965801
0.00057320545
0.0014518387
2.6441083e-05
2.9404818e-05
3.5650593e-05
4.4759304e-05
5.663395e-05
7.1618069e-05
9.0776556e-05
0.00011639299
0.00015317136
0.00021162527
0.00031953296
0.00057347117
0.0014534809
2.6914835e-05
2.9796197e-05
3.5888958e-05
4.4821108e-05
5.6533306e-05
7.1388767e-05
9.0458014e-05
0.00011602548
0.00015279874
0.00021130498
0.00031936212
0.00057367826
0.001454972
2.731477e-05
3.0117837e-05
3.6064345e-05
4.4826184e-05
5.6380237e-05
7.1109905e-05
9.0092343e-05
0.00011561335
0.00015238399
0.00021094419
0.00031914913
0.00057382909
0.0014563107
2.764631e-05
3.037521e-05
3.6182415e-05
4.4780537e-05
5.6181059e-05
7.0787856e-05
8.9685678e-05
0.00011516232
0.00015193234
0.00021054764
0.00031889812
0.00057392677
0.0014574976
2.791491e-05
3.0573744e-05
3.6248643e-05
4.4689863e-05
5.5941753e-05
7.0428741e-05
8.9244046e-05
0.00011467815
0.00015144919
0.00021012034
0.00031861362
0.00057397498
0.0014585351
2.8125953e-05
3.0718738e-05
3.6268272e-05
4.4559535e-05
5.5667945e-05
7.0038379e-05
8.8773297e-05
0.00011416656
0.00015094005
0.0002096675
0.00031830044
0.00057397781
0.0014594269
2.8284671e-05
3.0815299e-05
3.6246291e-05
4.4394593e-05
5.5364896e-05
6.9622263e-05
8.8279039e-05
0.00011363313
0.00015041037
0.00020919437
0.00031796348
0.00057393969
0.0014601782
2.839609e-05
3.086831e-05
3.6187411e-05
4.4199744e-05
5.5037502e-05
6.9185537e-05
8.7766599e-05
0.00011308327
0.00014986551
0.00020870615
0.00031760769
0.0005738652
0.0014607952
2.8464989e-05
3.0882396e-05
3.6096058e-05
4.3979366e-05
5.4690291e-05
6.8732983e-05
8.724098e-05
0.00011252209
0.0001493106
0.00020820789
0.00031723787
0.00057375894
0.0014612852
2.8495886e-05
3.0861913e-05
3.5976371e-05
4.3737511e-05
5.4327436e-05
6.8269013e-05
8.6706839e-05
0.00011195443
0.00014875053
0.00020770438
0.00031685865
0.00057362548
0.0014616561
2.849302e-05
3.0810941e-05
3.58322e-05
4.347792e-05
5.3952762e-05
6.7797675e-05
8.6168468e-05
0.00011138475
0.00014818983
0.00020720011
0.00031647437
0.00057346924
0.0014619163
2.8460351e-05
3.0733279e-05
3.5667115e-05
4.3204029e-05
5.3569756e-05
6.7322651e-05
8.5629786e-05
0.00011081715
0.00014763269
0.00020669923
0.00031608903
0.00057329437
0.0014620747
2.8401556e-05
3.0632454e-05
3.548441e-05
4.2918983e-05
5.3181585e-05
6.6847271e-05
8.5094335e-05
0.00011025536
0.0001470829
0.00020620547
0.00031570627
0.0005731048
0.0014621401
2.8320043e-05
3.0511726e-05
3.5287116e-05
4.2625648e-05
5.2791107e-05
6.6374523e-05
8.4565288e-05
0.00010970271
0.00014654385
0.00020572217
0.00031532932
0.00057290412
0.0014621214
2.8218954e-05
3.0374095e-05
3.5078009e-05
4.2326627e-05
5.2400887e-05
6.5907065e-05
8.4045455e-05
0.00010916211
0.0001460185
0.00020525221
0.00031496101
0.00057269557
0.0014620273
2.8101177e-05
3.0222314e-05
3.4859622e-05
4.2024273e-05
5.2013215e-05
6.5447243e-05
8.3537294e-05
0.00010863613
0.00014550942
0.00020479809
0.00031460373
0.00057248207
0.0014618664
2.7969356e-05
3.0058901e-05
3.463426e-05
4.17207e-05
5.1630119e-05
6.4997108e-05
8.3042931e-05
0.00010812695
0.00014501878
0.00020436188
0.00031425952
0.00057226618
0.0014616468
2.7825909e-05
2.988615e-05
3.4404009e-05
4.14178e-05
5.1253385e-05
6.4558431e-05
8.2564176e-05
0.0001076364
0.00014454836
0.00020394525
0.00031392999
0.00057205014
0.0014613763
2.7673034e-05
2.9706144e-05
3.4170749e-05
4.1117258e-05
5.0884568e-05
6.4132725e-05
8.210254e-05
0.00010716597
0.00014409959
0.0002035495
0.00031361642
0.00057183582
0.0014610622
2.7512728e-05
2.9520767e-05
3.3936171e-05
4.0820562e-05
5.0525014e-05
6.372126e-05
8.1659258e-05
0.00010671686
0.00014367356
0.00020317563
0.00031331983
0.00057162458
0.0014607112
2.7346794e-05
2.9331719e-05
3.3701784e-05
4.0529019e-05
5.017587e-05
6.3325083e-05
8.1235309e-05
0.00010628997
0.00014327106
0.00020282426
0.00031304075
0.00057141651
0.0014603288
2.7176859e-05
2.9140525e-05
3.3468927e-05
4.0243766e-05
4.9838101e-05
6.2945037e-05
8.0831442e-05
0.00010588594
0.00014289263
0.00020249591
0.00031277957
0.00057120938
0.00145992
2.7004383e-05
2.8948547e-05
3.3238786e-05
3.9965783e-05
4.9512506e-05
6.2581775e-05
8.0448188e-05
0.00010550518
0.00014253851
0.00020219045
0.00031253538
0.00057100477
0.0014594899
2.6830671e-05
2.8756999e-05
3.30124e-05
3.9695907e-05
4.919973e-05
6.2235786e-05
8.0085905e-05
0.00010514795
0.00014220887
0.00020190802
0.00031230614
0.00057080578
0.001459044
2.6656884e-05
2.8566954e-05
3.2790675e-05
3.9434842e-05
4.8900282e-05
6.1907405e-05
7.9744777e-05
0.00010481425
0.00014190344
0.00020164699
0.00031209276
0.00057061395
0.0014585871
2.6484052e-05
2.8379357e-05
3.2574393e-05
3.918317e-05
4.8614543e-05
6.1596829e-05
7.9424821e-05
0.00010450389
0.00014162171
0.00020140638
0.00031189574
0.00057043044
0.0014581237
2.6313083e-05
2.8195033e-05
3.2364222e-05
3.8941364e-05
4.8342787e-05
6.1304148e-05
7.9125973e-05
0.00010421666
0.0001413622
0.00020118619
0.00031171517
0.00057025602
0.0014576578
2.6144771e-05
2.8014701e-05
3.2160729e-05
3.8709799e-05
4.8085185e-05
6.1029339e-05
7.8847985e-05
0.00010395152
0.00014112444
0.0002009861
0.00031155091
0.00057009118
0.001457193
2.5979809e-05
2.7838978e-05
3.1964384e-05
3.8488759e-05
4.7841819e-05
6.0772271e-05
7.8590329e-05
0.00010370763
0.00014090796
0.00020080561
0.00031140258
0.00056993617
0.0014567322
2.5818794e-05
2.7668392e-05
3.1775577e-05
3.827845e-05
4.7612699e-05
6.0532698e-05
7.8352146e-05
0.00010348448
0.00014071213
0.0002006441
0.0003112697
0.0005697911
0.0014562782
2.5662241e-05
2.7503389e-05
3.1594623e-05
3.8079025e-05
4.7397749e-05
6.0309949e-05
7.8132951e-05
0.00010328145
0.00014053626
0.00020050081
0.00031115167
0.00056965592
0.0014558332
2.5510588e-05
2.734435e-05
3.1421789e-05
3.7890525e-05
4.7196565e-05
6.0103633e-05
7.7932196e-05
0.00010309787
0.00014037954
0.00020037493
0.00031104781
0.0005695305
0.0014553993
2.5364216e-05
2.7191593e-05
3.1257203e-05
3.7712801e-05
4.7008889e-05
5.9913317e-05
7.7749281e-05
0.00010293297
0.00014024112
0.00020026559
0.00031095738
0.00056941462
0.001454978
2.5223406e-05
2.7045311e-05
3.1100905e-05
3.754574e-05
4.683443e-05
5.9738528e-05
7.758356e-05
0.00010278596
0.0001401201
0.00020017185
0.00031087962
0.00056930801
0.0014545707
2.5088358e-05
2.6905636e-05
3.0952907e-05
3.7389195e-05
4.6672862e-05
5.9578756e-05
7.743435e-05
0.00010265602
0.00014001553
0.00020009279
0.00031081373
0.00056921034
0.0014541785
2.4959222e-05
2.677266e-05
3.0813181e-05
3.7242985e-05
4.6523829e-05
5.9433463e-05
7.7300937e-05
0.00010254227
0.00013992648
0.00020002744
0.00031075893
0.00056912126
0.0014538022
2.4836103e-05
2.664643e-05
3.0681667e-05
3.71069e-05
4.6386948e-05
5.9302086e-05
7.7182586e-05
0.00010244385
0.00013985198
0.00019997486
0.00031071442
0.00056904041
0.0014534426
2.4719065e-05
2.6526959e-05
3.055827e-05
3.6980702e-05
4.6261812e-05
5.918404e-05
7.7078548e-05
0.00010235986
0.00013979107
0.00019993411
0.00031067943
0.00056896739
0.0014531
2.4608138e-05
2.6414228e-05
3.0442869e-05
3.6864129e-05
4.6147993e-05
5.9078724e-05
7.698806e-05
0.00010228943
0.0001397428
0.00019990427
0.0003106532
0.00056890182
0.0014527749
2.4503317e-05
2.6308186e-05
3.0335317e-05
3.6756896e-05
4.6045047e-05
5.8985527e-05
7.6910357e-05
0.00010223166
0.00013970623
0.00019988444
0.00031063499
0.00056884332
0.0014524674
2.4404573e-05
2.6208756e-05
3.0235441e-05
3.6658701e-05
4.5952514e-05
5.8903828e-05
7.6844673e-05
0.00010218569
0.00013968045
0.00019987374
0.00031062411
0.0005687915
0.0014521776
2.4311847e-05
2.6115837e-05
3.014305e-05
3.6569223e-05
4.5869926e-05
5.8833005e-05
7.6790248e-05
0.00010215066
0.00013966456
0.00019987134
0.00031061987
0.000568746
0.0014519054
2.422506e-05
2.6029306e-05
3.0057932e-05
3.648813e-05
4.5796805e-05
5.8772434e-05
7.6746328e-05
0.00010212572
0.00013965769
0.00019987643
0.00031062163
0.00056870643
0.0014516508
2.414411e-05
2.5949021e-05
2.9979861e-05
3.6415076e-05
4.573267e-05
5.8721492e-05
7.6712173e-05
0.00010211006
0.00013965902
0.00019988824
0.00031062877
0.00056867242
0.0014514135
2.4068876e-05
2.5874823e-05
2.9908597e-05
3.6349709e-05
4.5677034e-05
5.8679563e-05
7.6687056e-05
0.00010210288
0.00013966774
0.00019990604
0.0003106407
0.0005686436
0.0014511931
2.3999224e-05
2.5806539e-05
2.9843889e-05
3.6291668e-05
4.5629415e-05
5.864604e-05
7.6670268e-05
0.00010210342
0.00013968308
0.00019992913
0.00031065687
0.00056861962
0.0014509893
2.3935e-05
2.574398e-05
2.9785473e-05
3.624059e-05
4.5589329e-05
5.8620326e-05
7.6661119e-05
0.00010211093
0.00013970431
0.00019995685
0.00031067675
0.00056860011
0.0014508016
2.3876043e-05
2.568695e-05
2.9733082e-05
3.6196106e-05
4.5556298e-05
5.8601836e-05
7.6658943e-05
0.00010212471
0.00013973075
0.00019998858
0.00031069986
0.00056858474
0.0014506295
2.3822177e-05
2.563524e-05
2.968644e-05
3.6157851e-05
4.5529852e-05
5.859e-05
7.6663098e-05
0.00010214409
0.00013976173
0.00020002375
0.00031072574
0.00056857319
0.0014504724
2.3773219e-05
2.5588637e-05
2.964527e-05
3.6125458e-05
4.5509527e-05
5.8584267e-05
7.6672965e-05
0.00010216841
0.00013979664
0.00020006182
0.00031075397
0.00056856516
0.00145033
2.3728978e-05
2.5546919e-05
2.9609288e-05
3.6098564e-05
4.5494871e-05
5.85841e-05
7.6687952e-05
0.00010219708
0.0001398349
0.00020010228
0.00031078416
0.00056856037
0.0014502014
2.3689255e-05
2.5509861e-05
2.9578214e-05
3.6076809e-05
4.5485439e-05
5.8588983e-05
7.6707497e-05
0.00010222952
0.00013987597
0.00020014469
0.00031081595
0.00056855855
0.0014500863
2.3653851e-05
2.5477235e-05
2.9551764e-05
3.605984e-05
4.5480804e-05
5.8598421e-05
7.6731061e-05
0.00010226519
0.00013991936
0.0002001886
0.00031084902
0.00056855943
0.0014499839
2.3622557e-05
2.5448809e-05
2.9529658e-05
3.6047311e-05
4.5480546e-05
5.8611936e-05
7.6758134e-05
0.00010230357
0.00013996458
0.00020023361
0.00031088305
0.00056856276
0.0014498937
2.3595166e-05
2.5424353e-05
2.9511618e-05
3.6038881e-05
4.5484265e-05
5.8629075e-05
7.6788234e-05
0.0001023442
0.00014001121
0.00020027938
0.00031091774
0.00056856828
0.001449815
2.357147e-05
2.5403636e-05
2.9497369e-05
3.603422e-05
4.5491571e-05
5.8649404e-05
7.6820907e-05
0.00010238663
0.00014005884
0.00020032555
0.00031095284
0.00056857573
0.001449747
2.3551257e-05
2.5386427e-05
2.9486642e-05
3.6033008e-05
4.5502092e-05
5.8672512e-05
7.6855727e-05
0.00010243044
0.0001401071
0.00020037182
0.00031098809
0.00056858486
0.0014496892
2.3534321e-05
2.5372501e-05
2.9479173e-05
3.6034934e-05
4.5515473e-05
5.8698011e-05
7.6892296e-05
0.00010247527
0.00014015567
0.00020041791
0.00031102327
0.00056859545
0.0014496409
2.3520453e-05
2.5361632e-05
2.9474705e-05
3.6039699e-05
4.5531376e-05
5.8725535e-05
7.6930243e-05
0.00010252075
0.00014020422
0.00020046359
0.00031105821
0.00056860731
0.0014496014
2.350945e-05
2.5353602e-05
2.9472987e-05
3.6047017e-05
4.5549479e-05
5.8754744e-05
7.6969228e-05
0.00010256657
0.00014025251
0.00020050864
0.00031109273
0.00056862027
0.0014495701
2.3501111e-05
2.5348195e-05
2.9473778e-05
3.6056612e-05
4.5569478e-05
5.8785318e-05
7.7008935e-05
0.00010261244
0.00014030027
0.00020055289
0.00031112671
0.00056863421
0.0014495466
2.3495239e-05
2.5345202e-05
2.9476845e-05
3.6068222e-05
4.5591089e-05
5.8816959e-05
7.7049076e-05
0.00010265811
0.00014034731
0.00020059615
0.00031116003
0.000568649
0.0014495303
2.3491641e-05
2.5344419e-05
2.9481961e-05
3.6081599e-05
4.561404e-05
5.8849392e-05
7.7089383e-05
0.00010270333
0.00014039342
0.00020063831
0.00031119258
0.00056866454
0.0014495207
2.3490131e-05
2.534565e-05
2.9488912e-05
3.6096504e-05
4.5638081e-05
5.8882359e-05
7.7129616e-05
0.0001027479
0.00014043843
0.00020067922
0.00031122427
0.00056868068
0.0014495174
2.3490525e-05
2.5348703e-05
2.9497489e-05
3.6112715e-05
4.5662974e-05
5.8915625e-05
7.7169551e-05
0.00010279162
0.0001404822
0.00020071877
0.00031125499
0.00056869729
0.0014495197
2.3492648e-05
2.5353394e-05
2.9507496e-05
3.6130017e-05
4.5688498e-05
5.8948972e-05
7.7208989e-05
0.00010283432
0.00014052458
0.00020075686
0.00031128465
0.00056871418
0.0014495271
2.349633e-05
2.5359546e-05
2.9518745e-05
3.6148214e-05
4.5714451e-05
5.8982201e-05
7.7247747e-05
0.00010287584
0.00014056546
0.00020079338
0.00031131314
0.00056873118
0.0014495389
2.3501406e-05
2.5366991e-05
2.9531057e-05
3.6167117e-05
4.5740642e-05
5.9015132e-05
7.7285667e-05
0.00010291607
0.00014060473
0.00020082828
0.00031134039
0.0005687481
0.0014495546
2.350772e-05
2.5375569e-05
2.9544265e-05
3.6186554e-05
4.5766901e-05
5.9047603e-05
7.7322606e-05
0.00010295487
0.00014064233
0.00020086148
0.00031136632
0.0005687648
0.0014495735
2.3515125e-05
2.5385126e-05
2.9558211e-05
3.6206366e-05
4.5793071e-05
5.9079473e-05
7.7358448e-05
0.00010299218
0.00014067818
0.00020089296
0.00031139091
0.00056878117
0.0014495952
2.3523478e-05
2.539552e-05
2.9572749e-05
3.6226406e-05
4.5819012e-05
5.9110616e-05
7.7393091e-05
0.00010302791
0.00014071226
0.00020092271
0.00031141417
0.00056879717
0.0014496192
2.3532647e-05
2.5406616e-05
2.9587744e-05
3.624654e-05
4.5844601e-05
5.9140927e-05
7.7426455e-05
0.00010306202
0.00014074455
0.00020095075
0.00031143612
0.00056881281
0.0014496454
2.3542507e-05
2.5418288e-05
2.960307e-05
3.6266648e-05
4.5869727e-05
5.9170313e-05
7.7458476e-05
0.00010309448
0.00014077506
0.0002009771
0.0003114568
0.00056882803
0.0014496735
2.3552939e-05
2.5430419e-05
2.9618612e-05
3.628662e-05
4.5894293e-05
5.9198699e-05
7.7489103e-05
0.00010312526
0.00014080378
0.0002010018
0.00031147625
0.00056884264
0.0014497032
2.3563834e-05
2.54429e-05
2.9634262e-05
3.6306357e-05
4.5918214e-05
5.9226019e-05
7.7518297e-05
0.00010315436
0.00014083073
0.00020102487
0.00031149446
0.00056885663
0.0014497343
2.3575089e-05
2.5455628e-05
2.9649925e-05
3.632577e-05
4.5941415e-05
5.9252218e-05
7.7546027e-05
0.00010318177
0.00014085595
0.00020104635
0.0003115113
0.00056887016
0.0014497667
2.3586606e-05
2.546851e-05
2.9665509e-05
3.6344778e-05
4.596383e-05
5.9277251e-05
7.7572273e-05
0.0001032075
0.00014087942
0.00020106619
0.00031152679
0.00056888327
0.0014498001
2.3598297e-05
2.5481457e-05
2.9680933e-05
3.636331e-05
4.5985404e-05
5.9301083e-05
7.7597021e-05
0.00010323154
0.00014090119
0.00020108433
0.00031154102
0.00056889592
0.0014498342
2.3610077e-05
2.549439e-05
2.9696122e-05
3.6381303e-05
4.6006089e-05
5.9323687e-05
7.7620267e-05
0.00010325392
0.0001409212
0.00020110084
0.00031155402
0.00056890807
0.0014498687
2.3621871e-05
2.5507234e-05
2.9711011e-05
3.6398702e-05
4.6025847e-05
5.9345044e-05
7.7642012e-05
0.00010327464
0.00014093947
0.00020111577
0.00031156581
0.00056891961
0.0014499031
2.3633608e-05
2.5519923e-05
2.972554e-05
3.6415461e-05
4.6044651e-05
5.9365149e-05
7.7662272e-05
0.00010329367
0.00014095605
0.00020112918
0.00031157641
0.00056893048
0.0014499371
2.3645227e-05
2.5532399e-05
2.973966e-05
3.6431542e-05
4.6062481e-05
5.9384004e-05
7.768103e-05
0.00010331107
0.00014097101
0.00020114115
0.00031158587
0.00056894064
0.0014499705
2.365667e-05
2.5544608e-05
2.9753326e-05
3.6446919e-05
4.6079329e-05
5.94016e-05
7.7698306e-05
0.00010332689
0.00014098442
0.00020115173
0.00031159425
0.00056895007
0.001450003
2.3667891e-05
2.5556506e-05
2.9766504e-05
3.6461572e-05
4.6095183e-05
5.941794e-05
7.7714142e-05
0.00010334119
0.00014099637
0.00020116102
0.0003116016
0.00056895881
0.0014500345
2.3678845e-05
2.5568058e-05
2.9779169e-05
3.647548e-05
4.6110034e-05
5.9433047e-05
7.7728587e-05
0.00010335404
0.00014100693
0.00020116911
0.00031160803
0.0005689669
0.001450065
2.36895e-05
2.5579231e-05
2.9791293e-05
3.6488629e-05
4.612389e-05
5.9446952e-05
7.7741693e-05
0.00010336551
0.00014101619
0.00020117608
0.00031161361
0.00056897445
0.0014500946
2.3699822e-05
2.5589995e-05
2.9802855e-05
3.6501013e-05
4.6136765e-05
5.9459691e-05
7.7753518e-05
0.00010337569
0.00014102423
0.00020118202
0.00031161843
0.00056898152
0.0014501232
2.3709782e-05
2.5600326e-05
2.9813839e-05
3.651263e-05
4.6148678e-05
5.9471303e-05
7.7764118e-05
0.00010338463
0.00014103114
0.00020118702
0.00031162258
0.00056898818
0.001450151
2.3719356e-05
2.5610204e-05
2.9824236e-05
3.6523487e-05
4.615965e-05
5.9481829e-05
7.7773552e-05
0.00010339241
0.00014103698
0.00020119114
0.0003116261
0.00056899448
0.001450178
2.3728524e-05
2.5619613e-05
2.983404e-05
3.6533591e-05
4.6169708e-05
5.9491312e-05
7.7781875e-05
0.0001033991
0.00014104183
0.00020119444
0.00031162903
0.00056900042
0.0014502041
2.3737271e-05
2.5628543e-05
2.984325e-05
3.6542953e-05
4.6178877e-05
5.9499792e-05
7.7789144e-05
0.00010340475
0.00014104575
0.00020119698
0.00031163141
0.00056900599
0.0014502293
2.3745584e-05
2.5636986e-05
2.9851866e-05
3.6551588e-05
4.6187188e-05
5.9507315e-05
7.7795413e-05
0.00010340944
0.00014104879
0.0002011988
0.00031163325
0.00056901115
0.0014502534
2.3753455e-05
2.5644936e-05
2.9859892e-05
3.6559513e-05
4.6194671e-05
5.9513925e-05
7.7800737e-05
0.00010341321
0.00014105102
0.00020119994
0.00031163455
0.00056901584
0.0014502764
2.3760877e-05
2.5652394e-05
2.9867337e-05
3.6566747e-05
4.6201359e-05
5.9519667e-05
7.780517e-05
0.00010341612
0.00014105248
0.00020120044
0.00031163533
0.00056902003
0.001450298
2.376785e-05
2.565936e-05
2.9874211e-05
3.6573312e-05
4.6207287e-05
5.9524587e-05
7.780877e-05
0.00010341825
0.00014105324
0.00020120035
0.00031163561
0.00056902369
0.0014503182
2.3774374e-05
2.5665841e-05
2.9880528e-05
3.6579232e-05
4.6212491e-05
5.9528736e-05
7.7811594e-05
0.00010341964
0.00014105336
0.00020119973
0.00031163544
0.00056902683
0.001450337