/*--------------------------------*- C++ -*----------------------------------*\
| =========                 |                                                 |
| \\      /  F ield         | OpenFOAM: The Open Source CFD Toolbox           |
|  \\    /   O peration     | Version:  2506                                  |
|   \\  /    A nd           | Website:  www.openfoam.com                      |
|    \\/     M anipulation  |                                                 |
\*---------------------------------------------------------------------------*/
FoamFile
{
    version     2.0;
    format      ascii;
    arch        "LSB;label=32;scalar=64";
    class       volScalarField;
    location    "10000/water";
    object      k;
}
// * * * * * * * * * * * * * * * * * * * * * * * * * * * * * * * * * * * * * //

dimensions      [0 2 -2 0 0 0 0];

internalField   nonuniform List<scalar> 
2600
(
0.0001992401
0.00019923925
0.00019923929
0.00019923963
0.00019923982
0.00019923914
0.00019923438
0.00019921375
0.00019914651
0.00019904325
0.00019990841
0.00021454267
0.00040955349
0.00017237279
0.00017237614
0.00017237826
0.00017238051
0.0001723821
0.00017237949
0.00017235884
0.00017227555
0.000172027
0.00017162102
0.00017329371
0.00020304806
0.00052391648
0.00015132731
0.00015133049
0.00015133306
0.00015133552
0.00015133516
0.00015132207
0.00015126283
0.00015106462
0.00015055477
0.00014985944
0.0001528957
0.00019760629
0.00057958156
0.00013448336
0.00013448533
0.00013448764
0.00013448905
0.00013448325
0.00013445009
0.00013432997
0.00013398205
0.00013321503
0.00013247936
0.00013787909
0.00019702317
0.00059640815
0.00012075551
0.00012075697
0.00012075853
0.00012075718
0.00012074152
0.0001206782
0.00012048052
0.00011997843
0.0001190486
0.00011870929
0.00012776334
0.00020116854
0.00059206885
0.0001093899
0.00010939088
0.000109391
0.00010938492
0.00010935483
0.00010925313
0.00010897207
0.00010834649
0.00010742643
0.0001080609
0.00012226457
0.00021023394
0.00057809221
9.984982e-05
9.9850093e-05
9.9847944e-05
9.9835056e-05
9.9786463e-05
9.9641865e-05
9.9284958e-05
9.859999e-05
9.7925044e-05
0.00010022517
0.00012123091
0.00022425603
0.00056106272
9.1744874e-05
9.174416e-05
9.1738826e-05
9.1717148e-05
9.1647174e-05
9.1460104e-05
9.1049018e-05
9.0398665e-05
9.0258419e-05
9.5030413e-05
0.00012461431
0.00024286356
0.00054449405
8.4785472e-05
8.4783454e-05
8.4774018e-05
8.4741918e-05
8.4649457e-05
8.4426122e-05
8.3996574e-05
8.3502376e-05
8.4241543e-05
9.2421343e-05
0.00013239492
0.00026511347
0.00053012765
7.8752977e-05
7.8749319e-05
7.8734951e-05
7.8691403e-05
7.8577619e-05
7.8330528e-05
7.7932172e-05
7.7743318e-05
7.9771153e-05
9.2438123e-05
0.00014444361
0.00028951151
0.0005186607
7.3479682e-05
7.3474066e-05
7.3454131e-05
7.3398964e-05
7.3267704e-05
7.3016085e-05
7.2712929e-05
7.3009357e-05
7.6815021e-05
9.5182833e-05
0.00016036324
0.00031428525
0.00051014247
6.8835097e-05
6.8827266e-05
6.8801436e-05
6.8735571e-05
6.8593744e-05
6.836405e-05
6.8235745e-05
6.9234209e-05
7.5403716e-05
0.00010076472
0.00017939076
0.00033780739
0.0005042266
6.4716374e-05
6.4706175e-05
6.4674551e-05
6.4600233e-05
6.4458202e-05
6.4284863e-05
6.4429045e-05
6.6391811e-05
7.5619872e-05
0.0001092241
0.00020043528
0.00035894529
0.00050037283
6.1041501e-05
6.1028932e-05
6.0992164e-05
6.091321e-05
6.0785257e-05
6.0711783e-05
6.1247563e-05
6.4493003e-05
7.7580807e-05
0.00012045028
0.00022225715
0.00037717552
0.0004980107
5.7744396e-05
5.7729653e-05
5.7689074e-05
5.7611142e-05
5.751606e-05
5.7596592e-05
5.8669223e-05
6.3582872e-05
8.1411587e-05
0.00013412437
0.00024370832
0.00039247762
0.00049664628
5.4771313e-05
5.4754847e-05
5.4712615e-05
5.4643526e-05
5.4605384e-05
5.4906753e-05
5.6693486e-05
6.3736861e-05
8.7208044e-05
0.00014971788
0.00026392364
0.00040513366
0.00049590625
5.2078186e-05
5.206076e-05
5.2020025e-05
5.1970154e-05
5.2019282e-05
5.2623661e-05
5.5340605e-05
6.5053659e-05
9.4994187e-05
0.00016655656
0.00028239551
0.00041554871
0.00049553614
4.9628636e-05
4.9611393e-05
4.9576492e-05
4.9559258e-05
4.9733504e-05
5.0741693e-05
5.4651195e-05
6.7643174e-05
0.00010468474
0.00018392818
0.00029893688
0.00042413795
0.00049537652
4.7392458e-05
4.7377004e-05
4.7353699e-05
4.7386176e-05
4.773248e-05
4.9267886e-05
5.468533e-05
7.1608745e-05
0.00011606686
0.00020119288
0.00031358495
0.0004312733
0.00049533511
4.5344476e-05
4.5332971e-05
4.5328746e-05
4.5432431e-05
4.600877e-05
4.8222045e-05
5.5520139e-05
7.7024464e-05
0.0001288111
0.00021785898
0.00032650009
0.00043726613
0.00049536294
4.3463657e-05
4.3458933e-05
4.3483358e-05
4.3685127e-05
4.4562868e-05
4.7637065e-05
5.7244888e-05
8.3911106e-05
0.00014251076
0.00023360812
0.00033789056
0.0004423671
0.00049543702
4.1732429e-05
4.173814e-05
4.1803329e-05
4.2136614e-05
4.3403328e-05
4.7559127e-05
5.9952697e-05
9.221677e-05
0.00015673761
0.00024827796
0.00034796833
0.000446773
0.00049554866
4.0136167e-05
4.015697e-05
4.0278148e-05
4.0784372e-05
4.2547129e-05
4.8047286e-05
6.3728698e-05
0.00010180888
0.00017109624
0.00026182257
0.00035692819
0.0004506357
0.00049569617
3.8662802e-05
3.8704582e-05
3.8900797e-05
3.9631106e-05
4.2020193e-05
4.9171839e-05
6.8635426e-05
0.00011248165
0.00018526229
0.00027427017
0.00036494028
0.00045407113
0.00049588069
3.7302531e-05
3.7372692e-05
3.7667676e-05
3.8685007e-05
4.1857943e-05
5.1010814e-05
7.4697742e-05
0.00012397797
0.00019899861
0.00028568912
0.00037214923
0.00045716736
0.00049610392
3.6047628e-05
3.6155447e-05
3.6578682e-05
3.7960181e-05
4.2105651e-05
5.3644136e-05
8.1890765e-05
0.00013601988
0.00021215193
0.00029616534
0.00037867609
0.00045999118
0.00049636709
3.4892327e-05
3.5049398e-05
3.5637397e-05
3.74772e-05
4.2818254e-05
5.7145345e-05
9.0134491e-05
0.00014833915
0.00022463803
0.00030578895
0.00038462125
0.00046259342
0.00049667065
3.383279e-05
3.4053569e-05
3.4851411e-05
3.7263736e-05
4.4059204e-05
6.1571465e-05
9.9297388e-05
0.00016070077
0.00023642318
0.00031464715
0.00039006765
0.000465013
0.00049701417
3.2867148e-05
3.316962e-05
3.4232755e-05
3.7355162e-05
4.5897912e-05
6.6952457e-05
0.00010920862
0.00017291581
0.00024750739
0.00032282079
0.0003950838
0.00046727998
0.00049739655
3.1995627e-05
3.2402111e-05
3.3798455e-05
3.7794963e-05
4.840543e-05
7.3282443e-05
0.00011967598
0.00018484397
0.00025791154
0.00033038289
0.00039972634
0.00046941774
0.00049781615
3.1220754e-05
3.1758868e-05
3.3571166e-05
3.863469e-05
5.1648303e-05
8.051504e-05
0.00013050501
0.00019638897
0.00026766839
0.00033739836
0.00040404224
0.00047144508
0.00049827105
3.0547674e-05
3.1251459e-05
3.357986e-05
3.9933129e-05
5.5680958e-05
8.8564416e-05
0.00014151527
0.0002074904
0.00027681665
0.00034392426
0.00040806986
0.00047336164
0.00049875826
2.9984563e-05
3.0895779e-05
3.3860462e-05
4.1754323e-05
6.0537584e-05
9.731215e-05
0.00015255088
0.00021811501
0.00028539698
0.00035000996
0.00041183982
0.00047517682
0.00049927447
2.9543172e-05
3.071274e-05
3.4456303e-05
4.4164149e-05
6.6225002e-05
0.00010661843
0.00016348529
0.00022824914
0.00029345
0.00035569878
0.00041537497
0.00047690097
0.00049981638
2.9239498e-05
3.072904e-05
3.5418148e-05
4.7225361e-05
7.271821e-05
0.00011633496
0.00017422101
0.00023789272
0.00030101458
0.00036102772
0.00041869399
0.00047854312
0.00050038114
2.9094594e-05
3.097795e-05
3.6803499e-05
5.0991329e-05
7.9959874e-05
0.00012631695
0.00018468651
0.00024705468
0.00030812683
0.00036602758
0.00042181619
0.00048011509
0.00050096676
2.9135495e-05
3.1500044e-05
3.8674856e-05
5.5499181e-05
8.7864155e-05
0.00013643208
0.00019483194
0.00025575014
0.00031482083
0.00037072328
0.00042475508
0.00048162854
0.000501572
2.9396229e-05
3.2343666e-05
4.1096625e-05
6.0763494e-05
9.6324061e-05
0.00014656573
0.0002046243
0.00026399669
0.00032112525
0.00037513787
0.00042753007
0.00048308916
0.00050219529
2.9918838e-05
3.3564904e-05
4.4130577e-05
6.6771873e-05
0.00010522077
0.00015662301
0.00021404417
0.00027181504
0.00032706605
0.00037928746
0.00043015897
0.00048450265
0.00050283511
3.0754237e-05
3.5226718e-05
4.7830023e-05
7.3483541e-05
0.00011443286
0.00016652782
0.000223081
0.00027922362
0.00033266467
0.00038319522
0.00043265449
0.00048587307
0.00050348988
3.196269e-05
3.7396834e-05
5.2233337e-05
8.0831442e-05
0.00012384407
0.00017622135
0.00023173236
0.00028624169
0.00033793722
0.00038688252
0.00043502773
0.00048720352
0.00050415803
3.3613498e-05
4.0144082e-05
5.7357837e-05
8.8727381e-05
0.00013334835
0.0001856585
0.00023999854
0.00029288456
0.00034290599
0.00039036648
0.0004372879
0.00048849633
0.00050483796
3.5783401e-05
4.3533065e-05
6.31953e-05
9.7069221e-05
0.00014285305
0.00019480682
0.00024788467
0.0002991623
0.00034759329
0.00039366186
0.00043944269
0.00048975324
0.00050552811
3.8553062e-05
4.7617426e-05
6.9710109e-05
0.00010574826
0.00015227865
0.00020364077
0.00025539328
0.00030509327
0.00035201757
0.00039678116
0.00044149841
0.00049097544
0.00050622691
4.2001151e-05
5.2432558e-05
7.6840715e-05
0.00011465641
0.00016156001
0.00021214494
0.00026252193
0.00031069681
0.00035619498
0.00039973503
0.00044346029
0.00049216366
0.00050693282
4.6195918e-05
5.7988961e-05
8.4503813e-05
0.0001236906
0.00017064178
0.00022029901
0.00026928193
0.00031598928
0.00036013924
0.00040253237
0.00044533252
0.00049331826
0.00050764432
5.118502e-05
6.4267713e-05
9.2600638e-05
0.00013275649
0.00017947939
0.00022808589
0.0002756847
0.00032098503
0.00036386202
0.00040518056
0.00044711836
0.00049443921
0.00050835988
5.6985367e-05
7.1219296e-05
0.00010102458
0.00014177165
0.00018802208
0.00023550304
0.00028174031
0.0003256963
0.00036737304
0.00040768557
0.00044882027
0.00049552615
0.000509078
6.3575491e-05
7.8766092e-05
0.00010966808
0.00015065103
0.00019623701
0.00024254865
0.00028745747
0.00033013331
0.00037068024
0.00041005206
0.00045043989
0.00049657838
0.00050979713
7.0893504e-05
8.6809043e-05
0.00011841801
0.00015932165
0.00020409991
0.0002492214
0.00029284337
0.00033430429
0.00037378986
0.0004122835
0.00045197814
0.00049759485
0.00051051571
7.883829e-05
9.5225399e-05
0.00012716549
0.00016772591
0.00021159054
0.00025552001
0.00029790359
0.00033821556
0.0003767065
0.00041438216
0.0004534352
0.0004985742
0.00051123214
8.7271778e-05
0.00010388141
0.00013581419
0.00017581508
0.00021869193
0.00026144299
0.00030264215
0.00034187169
0.00037943326
0.00041634921
0.00045481057
0.00049951472
0.00051194473
9.6036222e-05
0.00011264292
0.00014427887
0.00018354852
0.00022539
0.00026698863
0.00030706161
0.00034527556
0.00038197182
0.00041818479
0.00045610305
0.00050041433
0.00051265169
0.00010496813
0.0001213822
0.0001524859
0.00019089301
0.00023167334
0.00027215516
0.00031116332
0.00034842865
0.0003843226
0.00041988808
0.00045731083
0.00050127064
0.00051335112
0.00011391061
0.00012998324
0.00016037326
0.00019782235
0.00023753332
0.00027694107
0.00031494779
0.00035133127
0.00038648496
0.00042145742
0.00045843152
0.00050208094
0.00051404099
0.00012272249
0.00013834518
0.00016789034
0.00020431694
0.00024296422
0.0002813455
0.00031841512
0.00035398293
0.00038845743
0.00042289049
0.00045946229
0.00050284224
0.00051471911
0.00013128388
0.00014638428
0.00017499753
0.00021036344
0.00024796338
0.00028536872
0.00032156547
0.00035638275
0.00039023804
0.00042418451
0.00046039993
0.00050355137
0.00051538315
0.00013949842
0.00015403428
0.00018166557
0.0002159544
0.00025253139
0.00028901258
0.00032439956
0.00035852991
0.00039182468
0.00042533652
0.00046124113
0.00050420505
0.00051603065
0.00014729304
0.00016124582
0.00018787482
0.00022108781
0.00025667209
0.00029228082
0.00032691917
0.00036042411
0.00039321544
0.00042634365
0.0004619826
0.00050480007
0.00051665909
0.00015461611
0.00016798499
0.00019361428
0.00022576657
0.00026039248
0.00029517935
0.0003291275
0.00036206598
0.00039440905
0.00042720345
0.00046262136
0.00050533338
0.00051726584
0.00016143468
0.00017423145
0.00019888061
0.00022999796
0.00026370258
0.00029771633
0.00033102949
0.00036345744
0.0003954052
0.0004279142
0.00046315497
0.00050580231
0.00051784835
0.00016773143
0.00017997643
0.00020367705
0.00023379304
0.0002666151
0.00029990219
0.00033263199
0.00036460199
0.00039620484
0.00042847517
0.00046358176
0.00050620472
0.0005184041
0.00017350169
0.0001852206
0.00020801229
0.00023716602
0.00026914512
0.0003017495
0.00033394382
0.00036550489
0.00039681043
0.00042888688
0.00046390102
0.00050653913
0.00051893075
0.00017875065
0.0001899722
0.00021189954
0.00024013369
0.00027130967
0.00030327274
0.00033497572
0.00036617323
0.00039722609
0.00042915128
0.00046411319
0.00050680484
0.00051942618
0.00018349102
0.00019424531
0.00021535546
0.00024271484
0.00027312738
0.00030448805
0.00033574023
0.00036661591
0.00039745763
0.00042927181
0.00046421994
0.00050700204
0.00051988858
0.00018774104
0.00019805835
0.00021839941
0.00024492979
0.00027461807
0.00030541292
0.00033625145
0.00036684351
0.00039751253
0.00042925341
0.00046422418
0.00050713184
0.00052031647
0.0001915228
0.00020143285
0.00022105262
0.00024679985
0.00027580234
0.00030606587
0.00033652484
0.00036686816
0.00039739984
0.00042910251
0.00046413009
0.00050719623
0.00052070877
0.00019486101
0.00020439244
0.00022333762
0.000248347
0.00027670132
0.00030646612
0.00033657687
0.00036670327
0.00039712999
0.00042882687
0.00046394299
0.00050719808
0.00052106482
0.0001977819
0.00020696203
0.00022527766
0.0002495935
0.00027733631
0.00030663333
0.00033642479
0.00036636327
0.0003967146
0.00042843541
0.00046366924
0.00050714102
0.00052138438
0.00020031252
0.00020916713
0.0002268963
0.00025056159
0.00027772854
0.00030658729
0.00033608628
0.00036586334
0.00039616619
0.00042793803
0.00046331605
0.00050702933
0.00052166764
0.00020248006
0.00021103338
0.00022821706
0.00025127328
0.00027789898
0.00030634768
0.00033557926
0.00036521915
0.00039549795
0.00042734531
0.00046289128
0.00050686783
0.00052191517
0.00020431147
0.00021258617
0.00022926312
0.00025175014
0.00027786813
0.00030593391
0.00033492156
0.00036444657
0.00039472348
0.00042666834
0.00046240328
0.00050666169
0.00052212789
0.00020583308
0.00021385033
0.00023005711
0.00025201312
0.00027765587
0.00030536486
0.00033413079
0.00036356144
0.00039385649
0.00042591845
0.00046186064
0.00050641634
0.00052230706
0.00020707039
0.00021484993
0.00023062098
0.00025208245
0.00027728138
0.00030465881
0.00033322406
0.00036257937
0.00039291065
0.00042510698
0.00046127204
0.00050613731
0.00052245418
0.00020804791
0.00021560811
0.00023097582
0.00025197756
0.00027676299
0.00030383329
0.0003322179
0.00036151548
0.00039189932
0.00042424511
0.00046064604
0.00050583009
0.00052257101
0.00020878902
0.000216147
0.0002311418
0.00025171697
0.00027611817
0.00030290497
0.0003311281
0.00036038435
0.00039083541
0.00042334367
0.00045999096
0.00050550003
0.00052265943
0.00020931595
0.00021648765
0.00023113811
0.00025131825
0.00027536344
0.00030188962
0.00032996963
0.00035919981
0.00038973122
0.00042241298
0.00045931475
0.00050515228
0.00052272147
0.00020964968
0.00021664997
0.00023098293
0.00025079803
0.00027451435
0.00030080206
0.00032875652
0.00035797487
0.00038859832
0.00042146278
0.00045862486
0.00050479166
0.00052275922
0.00020980998
0.00021665271
0.00023069338
0.00025017193
0.00027358549
0.00029965613
0.00032750188
0.00035672166
0.00038744752
0.00042050209
0.0004579282
0.00050442267
0.0005227748
0.00020981542
0.0002165135
0.00023028555
0.0002494546
0.00027259044
0.00029846465
0.00032621784
0.00035545137
0.00038628872
0.00041953921
0.00045723107
0.00050404939
0.00052277033
0.00020968332
0.00021624881
0.00022977449
0.00024865967
0.0002715418
0.00029723948
0.00032491551
0.00035417424
0.00038513097
0.00041858163
0.00045653914
0.00050367551
0.0005227479
0.00020942986
0.00021587403
0.00022917421
0.00024779983
0.00027045122
0.00029599147
0.00032360503
0.00035289953
0.00038398239
0.00041763603
0.00045585743
0.00050330428
0.00052270954
0.00020907008
0.00021540344
0.00022849773
0.00024688681
0.00026932938
0.00029473053
0.00032229558
0.00035163556
0.00038285022
0.00041670831
0.00045519031
0.00050293856
0.00052265719
0.00020861789
0.00021485029
0.00022775711
0.00024593142
0.00026818606
0.00029346562
0.00032099537
0.00035038972
0.00038174081
0.00041580359
0.00045454154
0.0005025808
0.00052259271
0.00020808618
0.00021422681
0.00022696346
0.00024494358
0.00026703017
0.0002922048
0.00031971172
0.00034916848
0.00038065965
0.00041492621
0.00045391425
0.00050223302
0.00052251783
0.00020748683
0.00021354429
0.00022612701
0.00024393236
0.00026586975
0.0002909553
0.00031845107
0.00034797748
0.00037961143
0.00041407981
0.00045331093
0.00050189547
0.00052243414
0.00020683075
0.00021281307
0.0002252571
0.00024290601
0.00026471206
0.0002897235
0.00031721904
0.00034682152
0.00037860005
0.00041326726
0.00045273329
0.00050156787
0.00052234296
0.00020612794
0.00021204266
0.00022436228
0.00024187199
0.00026356358
0.00028851504
0.00031602047
0.00034570464
0.00037762871
0.00041249082
0.00045218173
0.00050125109
0.00052224549
0.00020538757
0.00021124172
0.00022345032
0.00024083705
0.00026243006
0.00028733481
0.00031485946
0.00034463017
0.00037669987
0.00041175195
0.00045165687
0.00050094665
0.00052214293
0.00020461798
0.00021041811
0.00022252824
0.00023980721
0.0002613166
0.00028618703
0.00031373947
0.0003436008
0.00037581544
0.0004110511
0.00045115893
0.00050065647
0.00052203657
0.00020382673
0.000209579
0.00022160238
0.00023878788
0.00026022763
0.00028507531
0.0003126633
0.00034261856
0.00037497637
0.00041038852
0.00045068914
0.00050038157
0.00052192758
0.00020302071
0.00020873083
0.00022067843
0.00023778381
0.00025916702
0.00028400265
0.00031163317
0.00034168483
0.00037418314
0.00040976446
0.00045024832
0.00050012265
0.00052181704
0.0002022061
0.00020787943
0.00021976148
0.00023679921
0.00025813807
0.00028297152
0.00031065078
0.00034080036
0.00037343546
0.00040917959
0.00044983689
0.00049988014
0.00052170588
0.00020138848
0.00020702999
0.00021885604
0.00023583774
0.00025714357
0.00028198389
0.00030971716
0.0003399651
0.00037273371
0.00040863407
0.00044945487
0.0004996542
0.00052159495
0.00020057284
0.00020618716
0.00021796609
0.00023490256
0.00025618583
0.00028104117
0.00030883275
0.00033917903
0.00037207796
0.00040812772
0.000449102
0.00049944478
0.00052148499
0.00019976362
0.00020535506
0.00021709512
0.00023399639
0.00025526671
0.0002801443
0.00030799743
0.00033844225
0.00037146794
0.00040766004
0.0004487778
0.00049925167
0.00052137663
0.00019896475
0.00020453732
0.00021624617
0.00023312152
0.00025438759
0.00027929339
0.00030721139
0.0003377545
0.00037090307
0.00040723029
0.00044848158
0.00049907452
0.00052127042
0.00019817973
0.00020373714
0.00021542189
0.00023227969
0.00025354907
0.00027848886
0.00030647452
0.00033711523
0.00037038249
0.00040683751
0.00044821251
0.00049891289
0.00052116683
0.0001974116
0.00020295728
0.00021462432
0.00023147211
0.00025275189
0.00027773084
0.00030578641
0.00033652362
0.00036990513
0.00040648058
0.00044796962
0.00049876625
0.00052106624
0.00019666291
0.00020219995
0.00021385512
0.00023069986
0.0002519965
0.00027701918
0.00030514641
0.00033597862
0.00036946973
0.0004061582
0.00044775185
0.000498634
0.00052096899
0.00019593578
0.00020146702
0.0002131157
0.00022996375
0.00025128309
0.00027635349
0.00030455363
0.000335479
0.00036907486
0.00040586897
0.00044755805
0.0004985155
0.00052087534
0.00019523203
0.00020076006
0.00021240716
0.00022926433
0.00025061162
0.00027573316
0.00030400699
0.00033502335
0.00036871897
0.00040561142
0.00044738702
0.00049841007
0.00052078548
0.00019455316
0.00020008037
0.00021173039
0.00022860194
0.00024998182
0.00027515738
0.00030350524
0.00033461013
0.00036840041
0.00040538399
0.00044723753
0.00049831701
0.00052069959
0.00019390043
0.00019942899
0.00021108601
0.00022797667
0.00024939325
0.00027462518
0.00030304701
0.00033423769
0.00036811746
0.00040518509
0.00044710834
0.00049823563
0.00052061778
0.00019327483
0.00019880671
0.00021047442
0.00022738843
0.00024884527
0.00027413544
0.00030263077
0.0003339043
0.00036786836
0.00040501312
0.0004469982
0.00049816522
0.00052054012
0.00019267713
0.00019821412
0.00020989585
0.00022683696
0.0002483371
0.00027368693
0.00030225495
0.00033360816
0.00036765129
0.00040486645
0.00044690588
0.0004981051
0.00052046667
0.0001921079
0.00019765161
0.00020935031
0.0002263218
0.00024786783
0.00027327827
0.00030191785
0.00033334745
0.00036746444
0.0004047435
0.00044683016
0.0004980546
0.00052039743
0.00019156752
0.00019711937
0.00020883767
0.0002258424
0.00024743641
0.00027290803
0.00030161775
0.00033312029
0.000367306
0.00040464268
0.00044676986
0.00049801305
0.00052033241
0.00019105618
0.00019661744
0.00020835763
0.00022539804
0.0002470417
0.00027257469
0.00030135287
0.0003329248
0.00036717417
0.00040456243
0.00044672383
0.00049797982
0.00052027157
0.00019057392
0.0001961457
0.00020790977
0.00022498789
0.00024668247
0.00027227667
0.00030112139
0.0003327591
0.00036706714
0.00040450123
0.00044669092
0.00049795429
0.00052021485
0.00019012062
0.00019570388
0.00020749352
0.00022461102
0.00024635742
0.00027201234
0.00030092149
0.00033262131
0.00036698317
0.00040445757
0.00044667006
0.00049793582
0.00052016219
0.00018969603
0.00019529159
0.00020710823
0.00022426642
0.00024606516
0.00027178004
0.00030075133
0.00033250956
0.00036692051
0.00040443001
0.00044666015
0.00049792383
0.00052011348
0.00018929978
0.00019490833
0.0002067531
0.00022395299
0.00024580426
0.00027157806
0.00030060906
0.00033242201
0.00036687748
0.00040441713
0.00044666019
0.00049791773
0.00052006863
0.00018893139
0.00019455348
0.0002064273
0.00022366956
0.00024557327
0.00027140472
0.00030049287
0.00033235685
0.00036685242
0.00040441756
0.00044666917
0.00049791695
0.0005200275
0.00018859026
0.00019422635
0.00020612989
0.00022341491
0.00024537069
0.0002712583
0.00030040095
0.00033231234
0.00036684376
0.00040443003
0.00044668618
0.00049792099
0.00051998998
0.00018827574
0.00019392615
0.00020585988
0.0002231878
0.00024519501
0.00027113713
0.00030033154
0.00033228676
0.00036684997
0.00040445329
0.00044671033
0.00049792934
0.00051995592
0.00018798708
0.00019365203
0.00020561622
0.00022298693
0.00024504472
0.00027103952
0.00030028294
0.00033227847
0.00036686962
0.00040448618
0.00044674081
0.00049794157
0.0005199252
0.00018772348
0.00019340311
0.00020539782
0.000222811
0.00024491832
0.00027096385
0.00030025347
0.00033228591
0.00036690132
0.0004045276
0.00044677686
0.00049795724
0.00051989768
0.00018748406
0.00019317842
0.00020520357
0.00022265868
0.00024481429
0.0002709085
0.00030024151
0.00033230755
0.00036694375
0.00040457653
0.00044681775
0.00049797597
0.00051987321
0.00018726793
0.00019297697
0.00020503232
0.00022252865
0.00024473116
0.0002708719
0.0003002455
0.00033234194
0.00036699568
0.00040463198
0.0004468628
0.00049799736
0.00051985164
0.00018707412
0.00019279774
0.00020488289
0.00022241958
0.00024466745
0.00027085251
0.00030026393
0.00033238768
0.0003670559
0.00040469301
0.00044691136
0.00049802103
0.00051983282
0.00018690166
0.00019263966
0.0002047541
0.00022233013
0.00024462173
0.00027084883
0.00030029532
0.00033244344
0.00036712326
0.00040475872
0.00044696279
0.00049804662
0.0005198166
0.00018674952
0.00019250167
0.00020464477
0.00022225899
0.00024459257
0.0002708594
0.00030033828
0.00033250793
0.0003671967
0.00040482827
0.0004470165
0.00049807375
0.0005198028
0.00018661668
0.00019238267
0.00020455371
0.00022220485
0.00024457858
0.00027088283
0.00030039145
0.00033257995
0.00036727519
0.00040490087
0.00044707193
0.00049810209
0.00051979126
0.00018650211
0.00019228159
0.00020447973
0.00022216646
0.00024457845
0.00027091779
0.00030045358
0.00033265836
0.00036735779
0.0004049758
0.00044712859
0.00049813136
0.00051978183
0.00018640476
0.00019219734
0.00020442169
0.00022214256
0.00024459088
0.00027096299
0.00030052347
0.00033274213
0.00036744365
0.00040505243
0.00044718604
0.0004981613
0.00051977436
0.00018632362
0.00019212886
0.00020437845
0.00022213198
0.00024461466
0.00027101725
0.00030060003
0.0003328303
0.000367532
0.00040513018
0.00044724392
0.00049819173
0.00051976873
0.00018625765
0.0001920751
0.00020434891
0.00022213356
0.00024464863
0.00027107946
0.00030068223
0.00033292199
0.00036762216
0.00040520856
0.00044730193
0.0004982225
0.0005197648
0.00018620587
0.00019203503
0.000204332
0.00022214619
0.00024469168
0.00027114854
0.00030076911
0.00033301641
0.0003677135
0.00040528715
0.00044735981
0.00049825348
0.00051976248
0.00018616729
0.00019200765
0.00020432669
0.00022216883
0.00024474276
0.00027122352
0.00030085981
0.00033311281
0.00036780545
0.00040536554
0.0004474173
0.00049828453
0.00051976164
0.00018614092
0.00019199196
0.00020433195
0.00022220043
0.00024480086
0.00027130345
0.00030095346
0.00033321051
0.00036789748
0.00040544334
0.00044747415
0.00049831551
0.00051976217
0.00018612581
0.00019198698
0.00020434679
0.00022224
0.00024486501
0.00027138741
0.00030104928
0.00033330881
0.00036798903
0.00040552016
0.0004475301
0.00049834623
0.00051976393
0.000186121
0.00019199176
0.00020437023
0.00022228657
0.00024493427
0.00027147453
0.00030114648
0.00033340708
0.00036807962
0.00040559561
0.00044758484
0.00049837647
0.00051976678
0.00018612556
0.00019200535
0.00020440133
0.0002223392
0.00024500773
0.00027156399
0.00030124434
0.00033350469
0.00036816872
0.0004056693
0.00044763809
0.000498406
0.00051977057
0.00018613856
0.00019202683
0.00020443918
0.00022239699
0.00024508455
0.000271655
0.00030134218
0.00033360109
0.00036825591
0.00040574089
0.00044768957
0.00049843462
0.00051977515
0.00018615914
0.00019205534
0.0002044829
0.0002224591
0.00024516394
0.00027174685
0.00030143937
0.00033369577
0.00036834077
0.00040581009
0.00044773908
0.00049846215
0.00051978039
0.00018618647
0.00019209003
0.00020453168
0.00022252474
0.00024524517
0.0002718389
0.0003015354
0.00033378831
0.00036842302
0.00040587668
0.00044778648
0.00049848853
0.00051978619
0.00018621975
0.00019213014
0.00020458477
0.00022259323
0.0002453276
0.00027193062
0.00030162982
0.00033387841
0.00036850245
0.00040594056
0.00044783174
0.0004985137
0.00051979246
0.00018625827
0.00019217495
0.00020464149
0.00022266391
0.00024541068
0.00027202155
0.0003017223
0.00033396582
0.00036857892
0.00040600169
0.00044787486
0.00049853755
0.00051979915
0.00018630137
0.00019222381
0.00020470122
0.00022273624
0.00024549394
0.0002721113
0.00030181257
0.00033405039
0.00036865239
0.00040606009
0.00044791585
0.00049856018
0.00051980619
0.00018634843
0.00019227614
0.0002047634
0.0002228097
0.00024557695
0.00027219956
0.0003019004
0.00033413201
0.00036872284
0.0004061158
0.00044795475
0.00049858168
0.00051981356
0.00018639888
0.00019233136
0.0002048275
0.00022288385
0.00024565934
0.00027228604
0.00030198563
0.00033421058
0.00036879023
0.00040616878
0.00044799158
0.00049860221
0.00051982122
0.00018645216
0.00019238894
0.00020489305
0.00022295826
0.00024574075
0.00027237048
0.00030206806
0.00033428601
0.00036885451
0.00040621902
0.00044802637
0.00049862181
0.00051982914
0.00018650774
0.00019244838
0.00020495956
0.00022303249
0.00024582084
0.0002724526
0.00030214751
0.00033435817
0.00036891558
0.00040626641
0.00044805918
0.0004986405
0.00051983724
0.00018656509
0.00019250916
0.00020502657
0.00022310616
0.00024589926
0.00027253215
0.00030222377
0.00033442688
0.00036897327
0.00040631093
0.00044808995
0.00049865821
0.00051984546
0.00018662371
0.00019257079
0.00020509362
0.00022317884
0.00024597568
0.00027260885
0.00030229663
0.00033449197
0.00036902747
0.00040635252
0.00044811862
0.00049867485
0.00051985371
0.00018668309
0.00019263281
0.00020516028
0.00022325018
0.00024604979
0.00027268245
0.00030236589
0.00033455325
0.00036907811
0.00040639113
0.00044814514
0.00049869032
0.0005198619
0.00018674277
0.00019269475
0.00020522615
0.00022331981
0.0002461213
0.00027275274
0.00030243135
0.00033461065
0.00036912515
0.00040642673
0.00044816944
0.00049870455
0.00051986995
0.00018680232
0.00019275621
0.00020529085
0.00022338743
0.00024618998
0.0002728195
0.0003024929
0.00033466411
0.00036916858
0.00040645932
0.00044819154
0.00049871751
0.0005198778
0.00018686137
0.00019281684
0.00020535408
0.0002234528
0.00024625562
0.00027288262
0.00030255051
0.00033471368
0.00036920847
0.00040648896
0.00044821149
0.00049872923
0.0005198854
0.00018691958
0.00019287633
0.00020541559
0.00022351571
0.00024631809
0.00027294206
0.00030260421
0.00033475944
0.00036924492
0.00040651579
0.00044822939
0.00049873977
0.00051989275
0.00018697672
0.00019293446
0.00020547516
0.00022357601
0.00024637733
0.00027299783
0.00030265409
0.00033480151
0.0003692781
0.00040653996
0.00044824539
0.00049874926
0.00051989982
0.00018703255
0.00019299101
0.00020553265
0.00022363362
0.00024643333
0.00027305
0.00030270028
0.00033484007
0.0003693082
0.00040656168
0.00044825969
0.00049875782
0.00051990665
0.00018708691
0.00019304584
0.00020558796
0.0002236885
0.00024648612
0.00027309867
0.00030274292
0.00033487531
0.00036933544
0.00040658115
0.00044827245
0.0004987656
0.00051991326
0.00018713966
0.00019309883
0.000205641
0.00022374063
0.00024653575
0.00027314396
0.00030278219
0.00033490743
0.00036936
0.00040659857
0.00044828385
0.0004987727
0.00051991965
0.00018719069
0.00019314989
0.00020569172
0.00022379002
0.00024658229
0.00027318596
0.00030281822
0.00033493658
0.00036938207
0.00040661408
0.000448294
0.0004987792
0.00051992584
0.00018723988
0.00019319893
0.00020574009
0.00022383667
0.00024662578
0.00027322478
0.00030285114
0.00033496291
0.00036940177
0.0004066278
0.00044830299
0.00049878514
0.00051993182
0.00018728714
0.00019324587
0.00020578604
0.00022388057
0.00024666626
0.0002732605
0.00030288106
0.00033498652
0.0003694192
0.0004066398
0.00044831082
0.00049879048
0.00051993757
0.00018733238
0.00019329063
0.00020582955
0.00022392172
0.00024670377
0.00027329317
0.00030290804
0.00033500749
0.00036943443
0.00040665011
0.00044831752
0.00049879519
0.00051994306
0.00018737551
0.00019333315
0.00020587056
0.00022396011
0.00024673834
0.00027332286
0.00030293217
0.00033502589
0.00036944749
0.00040665875
0.00044832305
0.00049879922
0.00051994826
0.00018741645
0.00019337336
0.00020590905
0.00022399576
0.00024677001
0.00027334963
0.00030295351
0.0003350418
0.00036945847
0.00040666576
0.00044832742
0.00049880254
0.00051995312
0.00018745515
0.00019341123