/*--------------------------------*- C++ -*----------------------------------*\
| =========                 |                                                 |
| \\      /  F ield         | OpenFOAM: The Open Source CFD Toolbox           |
|  \\    /   O peration     | Version:  2506                                  |
|   \\  /    A nd           | Website:  www.openfoam.com                      |
|    \\/     M anipulation  |                                                 |
\*---------------------------------------------------------------------------*/
FoamFile
{
    version     2.0;
    format      ascii;
    arch        "LSB;label=32;scalar=64";
    class       volScalarField;
    location    "10000/water";
    object      nut;
}
// * * * * * * * * * * * * * * * * * * * * * * * * * * * * * * * * * * * * * //

dimensions      [0 2 -1 0 0 0 0];

internalField   nonuniform List<scalar> 
2600
(
4.0562043e-05
4.0561942e-05
4.0561944e-05
4.0561981e-05
4.0561942e-05
4.0561434e-05
4.0558261e-05
4.0540002e-05
4.0435343e-05
3.98338e-05
3.6541397e-05
2.4161555e-05
1.4889524e-05
3.944741e-05
3.9447468e-05
3.944759e-05
3.9447676e-05
3.9447275e-05
3.9444342e-05
3.9428907e-05
3.9352895e-05
3.8988431e-05
3.7314814e-05
3.0763187e-05
1.7536144e-05
1.684056e-05
3.852265e-05
3.852264e-05
3.8522725e-05
3.8522528e-05
3.8520597e-05
3.8510798e-05
3.8466747e-05
3.8277827e-05
3.7500368e-05
3.454641e-05
2.5814945e-05
1.4669956e-05
1.7712619e-05
3.7742032e-05
3.774193e-05
3.7741811e-05
3.7740766e-05
3.7735283e-05
3.7711707e-05
3.7617453e-05
3.7258039e-05
3.5961308e-05
3.177518e-05
2.2061889e-05
1.3531464e-05
1.7967898e-05
3.7073562e-05
3.7073366e-05
3.7072781e-05
3.7069955e-05
3.7057916e-05
3.7011651e-05
3.6843992e-05
3.6266509e-05
3.4405655e-05
2.9188861e-05
1.9425178e-05
1.3345943e-05
1.7902414e-05
3.6493786e-05
3.6493393e-05
3.6491924e-05
3.648598e-05
3.646354e-05
3.6384687e-05
3.612226e-05
3.5294625e-05
3.2873382e-05
2.6881541e-05
1.771645e-05
1.3793839e-05
1.7689846e-05
3.5985207e-05
3.5984445e-05
3.5981496e-05
3.5970726e-05
3.5933497e-05
3.5812307e-05
3.5437992e-05
3.4343601e-05
3.1395257e-05
2.4892541e-05
1.6781972e-05
1.4727875e-05
1.7427344e-05
3.5534568e-05
3.55332e-05
3.5528007e-05
3.5510417e-05
3.5453869e-05
3.5281761e-05
3.478374e-05
3.3418009e-05
2.9989903e-05
2.3242727e-05
1.6521213e-05
1.605365e-05
1.7168093e-05
3.5131649e-05
3.5129373e-05
3.5121029e-05
3.5094485e-05
3.5014364e-05
3.4784646e-05
3.4156253e-05
3.2521766e-05
2.8667649e-05
2.1957692e-05
1.6869959e-05
1.7676047e-05
1.694009e-05
3.4768438e-05
3.47649e-05
3.4752406e-05
3.4714802e-05
3.4607522e-05
3.4315777e-05
3.3554458e-05
3.16563e-05
2.7438403e-05
2.1076946e-05
1.7774701e-05
1.9481897e-05
1.6755877e-05
3.4438571e-05
3.443338e-05
3.4415717e-05
3.4365168e-05
3.4228127e-05
3.3872266e-05
3.2977968e-05
3.0820513e-05
2.6321667e-05
2.0649591e-05
1.9168673e-05
2.1348725e-05
1.6617712e-05
3.4136931e-05
3.4129689e-05
3.4105903e-05
3.4040932e-05
3.3872746e-05
3.3452766e-05
3.2426062e-05
3.0012536e-05
2.5355877e-05
2.0719809e-05
2.0958175e-05
2.3166793e-05
1.6521078e-05
3.3859367e-05
3.3849701e-05
3.3819003e-05
3.3738723e-05
3.3539365e-05
3.3056856e-05
3.1897087e-05
2.923354e-05
2.4602257e-05
2.1309035e-05
2.3024752e-05
2.4858007e-05
1.6457822e-05
3.3602495e-05
3.3590098e-05
3.355197e-05
3.3456247e-05
3.3227088e-05
3.2684517e-05
3.1388405e-05
2.8493549e-05
2.4138757e-05
2.2402735e-05
2.5241354e-05
2.6381455e-05
1.6418929e-05
3.3363555e-05
3.334823e-05
3.3302533e-05
3.3192135e-05
3.2935885e-05
3.2335692e-05
3.0897111e-05
2.7818119e-05
2.4044358e-05
2.3946906e-05
2.7493335e-05
2.7726694e-05
1.6396422e-05
3.3140311e-05
3.3122024e-05
3.3069114e-05
3.2945826e-05
3.2666358e-05
3.2009929e-05
3.0421904e-05
2.725306e-05
2.4379894e-05
2.5855075e-05
2.9693858e-05
2.8902281e-05
1.6384202e-05
3.2930983e-05
3.2909915e-05
3.2850758e-05
3.2717477e-05
3.2419519e-05
3.1706209e-05
2.9966345e-05
2.6863467e-05
2.5173339e-05
2.8023003e-05
3.1788481e-05
2.9925862e-05
1.6378087e-05
3.27342e-05
3.2710811e-05
3.2647097e-05
3.2507877e-05
3.219656e-05
3.14231e-05
2.9543334e-05
2.672509e-05
2.6414167e-05
3.0346002e-05
3.37505e-05
3.0817912e-05
1.6375449e-05
3.254898e-05
3.2524066e-05
3.2458325e-05
3.2318372e-05
3.1998619e-05
3.1159479e-05
2.9179674e-05
2.6909998e-05
2.8056822e-05
3.2733299e-05
3.5572233e-05
3.1598491e-05
1.6374764e-05
3.2374714e-05
3.234948e-05
3.2285189e-05
3.2150777e-05
3.1826588e-05
3.0916123e-05
2.8918576e-05
2.7471843e-05
3.0030666e-05
3.5115835e-05
3.7256818e-05
3.2285747e-05
1.6375224e-05
3.2211173e-05
3.2187303e-05
3.2128983e-05
3.2007273e-05
3.1681012e-05
3.0698309e-05
2.8817773e-05
2.8435851e-05
3.2252928e-05
3.7447133e-05
3.8812575e-05
3.2895331e-05
1.6376448e-05
3.2058522e-05
3.2038256e-05
3.199155e-05
3.1890271e-05
3.1562235e-05
3.051924e-05
2.8942304e-05
2.97959e-05
3.4641248e-05
3.9699496e-05
4.0249836e-05
3.3440302e-05
1.6378293e-05
3.1917349e-05
3.1903563e-05
3.1875268e-05
3.1802262e-05
3.1470979e-05
3.0403412e-05
2.935363e-05
3.1518038e-05
3.7123062e-05
4.1858563e-05
4.1579377e-05
3.3931331e-05
1.6380731e-05
3.1788707e-05
3.1784988e-05
3.1783033e-05
3.1745667e-05
3.1409595e-05
3.0388386e-05
3.0098637e-05
3.3548307e-05
3.96405e-05
4.3918425e-05
4.2811637e-05
3.437703e-05
1.6383779e-05
3.167417e-05
3.1684884e-05
3.1718215e-05
3.1722746e-05
3.1384106e-05
3.052333e-05
3.1201971e-05
3.5822339e-05
4.2151077e-05
4.5878173e-05
4.3956334e-05
3.4784314e-05
1.6387467e-05
3.1575896e-05
3.1606239e-05
3.1684577e-05
3.1735682e-05
3.1406917e-05
3.0863668e-05
3.2663375e-05
3.8274456e-05
4.4625624e-05
4.7739784e-05
4.5022275e-05
3.515874e-05
1.6391813e-05
3.1496714e-05
3.155272e-05
3.1686171e-05
3.1786997e-05
3.1499545e-05
3.1462865e-05
3.445981e-05
4.0844583e-05
4.7045149e-05
4.9506885e-05
4.6017318e-05
3.5504796e-05
1.6396824e-05
3.1440215e-05
3.1528703e-05
3.1727217e-05
3.1880504e-05
3.169423e-05
3.2363744e-05
3.6550945e-05
4.3482189e-05
4.9397844e-05
5.1183999e-05
4.6948405e-05
3.5826126e-05
1.6402494e-05
3.141085e-05
3.1539289e-05
3.1812006e-05
3.2022927e-05
3.2033146e-05
3.3591897e-05
3.8886233e-05
4.6147431e-05
5.1676792e-05
5.2776067e-05
4.7821643e-05
3.6125719e-05
1.6408802e-05
3.1414042e-05
3.1590275e-05
3.1944928e-05
3.2226121e-05
3.2564565e-05
3.5152689e-05
4.1411891e-05
4.8810353e-05
5.3878388e-05
5.4288125e-05
4.8642395e-05
3.6406048e-05
1.6415722e-05
3.1456281e-05
3.1688096e-05
3.2130758e-05
3.2509435e-05
3.3336484e-05
3.7032013e-05
4.407651e-05
5.1449134e-05
5.6001297e-05
5.5725116e-05
4.9415388e-05
3.6669254e-05
1.6423221e-05
3.1545208e-05
3.1839741e-05
3.2375387e-05
3.2901324e-05
3.4389415e-05
3.9199978e-05
4.6834635e-05
5.4048188e-05
5.8045689e-05
5.7091637e-05
5.0144338e-05
3.6914943e-05
1.6431248e-05
3.1689662e-05
3.2052669e-05
3.2687147e-05
3.3439136e-05
3.575034e-05
4.1616209e-05
4.9648332e-05
5.6596556e-05
6.001274e-05
5.8392009e-05
5.0832725e-05
3.7144922e-05
1.6439749e-05
3.1899684e-05
3.2334824e-05
3.3078704e-05
3.4166339e-05
3.74293e-05
4.4235457e-05
5.2487189e-05
5.9086679e-05
6.190424e-05
5.9630089e-05
5.1482694e-05
3.7361243e-05
1.6448668e-05
3.2186465e-05
3.2694872e-05
3.3569195e-05
3.5127408e-05
3.9419061e-05
4.7012424e-05
5.5327445e-05
6.1513503e-05
6.3722339e-05
6.0809392e-05
5.2096449e-05
3.7565313e-05
1.6457958e-05
3.2562281e-05
3.314286e-05
3.4185828e-05
3.6361545e-05
4.1697453e-05
4.9905181e-05
5.8150801e-05
6.387383e-05
6.5469388e-05
6.1933116e-05
5.2677398e-05
3.7758158e-05
1.6467586e-05
3.3040472e-05
3.3691438e-05
3.4963988e-05
3.789694e-05
4.4231424e-05
5.2877041e-05
6.0943278e-05
6.6165774e-05
6.7147564e-05
6.3002904e-05
5.3228278e-05
3.7940823e-05
1.6477531e-05
3.3635635e-05
3.4357643e-05
3.5945059e-05
3.9746984e-05
4.6981713e-05
5.5897112e-05
6.3694244e-05
6.8388427e-05
6.8759333e-05
6.4022594e-05
5.3751053e-05
3.8114079e-05
1.6487766e-05
3.4364219e-05
3.5164895e-05
3.7171968e-05
4.1909146e-05
4.9907169e-05
5.8940018e-05
6.639566e-05
7.0541364e-05
7.0305656e-05
6.4995388e-05
5.424764e-05
3.8278685e-05
1.6498266e-05
3.5245714e-05
3.6144405e-05
3.8683381e-05
4.4366352e-05
5.2968068e-05
6.1985163e-05
6.9041445e-05
7.2624746e-05
7.1789407e-05
6.5923871e-05
5.4719659e-05
3.8435268e-05
1.6509004e-05
3.6304382e-05
3.7335004e-05
4.0508058e-05
4.7090187e-05
5.6128198e-05
6.5015937e-05
7.162695e-05
7.4638165e-05
7.3213263e-05
6.6810356e-05
5.5168629e-05
3.8584369e-05
1.6519954e-05
3.7571035e-05
3.8780583e-05
4.2660823e-05
5.0044934e-05
5.935577e-05
6.8018892e-05
7.4148645e-05
7.6582486e-05
7.4579717e-05
6.7656899e-05
5.559589e-05
3.8726449e-05
1.653109e-05
3.908384e-05
4.0525202e-05
4.5140961e-05
5.3191568e-05
6.2623562e-05
7.0983098e-05
7.6603205e-05
7.8458833e-05
7.5890905e-05
6.8465402e-05
5.6002629e-05
3.8861904e-05
1.6542386e-05
4.0886888e-05
4.260684e-05
4.7933079e-05
5.6490975e-05
6.5908438e-05
7.3899521e-05
7.898864e-05
8.0268731e-05
7.7148732e-05
6.9237563e-05
5.6389884e-05
3.8991064e-05
1.6553815e-05
4.3025748e-05
4.5051401e-05
5.1009862e-05
5.9906203e-05
6.9190859e-05
7.6760131e-05
8.1303258e-05
8.2013414e-05
7.835496e-05
6.9974894e-05
5.6758558e-05
3.9114209e-05
1.6565353e-05
4.5540331e-05
4.7868439e-05
5.4335738e-05
6.3403506e-05
7.2453901e-05
7.9558407e-05
8.3546722e-05
8.3693973e-05
7.9511136e-05
7.067871e-05
5.7109424e-05
3.9231565e-05
1.6576974e-05
4.8456695e-05
5.1049435e-05
5.7870616e-05
6.6952747e-05
7.568278e-05
8.228886e-05
8.5718424e-05
8.5311367e-05
8.0618597e-05
7.1350138e-05
5.7443132e-05
3.9343314e-05
1.6588653e-05
5.1780107e-05
5.4568621e-05
6.1572935e-05
7.0526867e-05
7.8863943e-05
8.4947816e-05
8.7817767e-05
8.6866351e-05
8.1678453e-05
7.1990117e-05
5.7760217e-05
3.9449594e-05
1.6600366e-05
5.549136e-05
5.8385635e-05
6.5401394e-05
7.4100926e-05
8.1987189e-05
8.7531667e-05
8.9844048e-05
8.8359447e-05
8.2691577e-05
7.2599398e-05
5.80611e-05
3.9550501e-05
1.6612087e-05
5.9547232e-05
6.2448918e-05
6.9315575e-05
7.7653789e-05
8.5043658e-05
9.0036952e-05
9.1796386e-05
8.9790912e-05
8.3658595e-05
7.3178548e-05
5.8346089e-05
3.9646089e-05
1.662379e-05
6.3884488e-05
6.6699801e-05
7.3278212e-05
8.1167588e-05
8.8025191e-05
9.2460244e-05
9.367367e-05
9.1160718e-05
8.4579876e-05
7.3727942e-05
5.8615385e-05
3.9736374e-05
1.6635451e-05
6.842736e-05
7.1077092e-05
7.7255197e-05
8.4626052e-05
9.0924158e-05
9.4798078e-05
9.5474535e-05
9.2468543e-05
8.5455533e-05
7.4247772e-05
5.8869082e-05
3.9821331e-05
1.6647041e-05
7.3095558e-05
7.5520298e-05
8.1214729e-05
8.8014213e-05
9.3733348e-05
9.7046937e-05
9.7197369e-05
9.3713773e-05
8.6285427e-05
7.4738048e-05
5.9107168e-05
3.9900897e-05
1.6658531e-05
7.7811294e-05
7.997232e-05
8.5127273e-05
9.1318194e-05
9.6445926e-05
9.9203269e-05
9.8840341e-05
9.4895537e-05
8.7069187e-05
7.5198608e-05
5.9329534e-05
3.9974973e-05
1.6669891e-05
8.250436e-05
8.4381465e-05
8.8965664e-05
9.4525134e-05
9.9055444e-05
0.00010126356
0.00010040147
9.6012747e-05
8.7806235e-05
7.5629137e-05
5.9535979e-05
4.0043426e-05
1.6681088e-05
8.7115003e-05
8.8702732e-05
9.2705337e-05
9.7623197e-05
0.0001015559
0.00010322441
0.00010187872
9.7064172e-05
8.849584e-05
7.6029193e-05
5.9726228e-05
4.0106096e-05
1.6692087e-05
9.1594932e-05
9.2898459e-05
9.6324602e-05
0.00010060167
0.00010394185
0.0001050827
0.00010327012
9.8048525e-05
8.9137172e-05
7.6398247e-05
5.9899949e-05
4.0162802e-05
1.6702851e-05
9.5906965e-05
9.6938392e-05
9.9804896e-05
0.0001034511
0.00010620848
0.00010683567
0.00010457385
9.8964566e-05
8.9729378e-05
7.6735727e-05
6.005678e-05
4.0213353e-05
1.671334e-05
0.00010002391
0.00010079932
0.00010313094
0.00010616344
0.00010835177
0.00010848103
0.00010578841
9.9811206e-05
9.0271664e-05
7.7041073e-05
6.0196358e-05
4.0257561e-05
1.6723514e-05
0.00010392711
0.0001044644
0.00010629076
0.00010873217
0.00011036857
0.00011001713
0.00010691272
0.00010058761
9.0763374e-05
7.7313795e-05
6.0318358e-05
4.0295254e-05
1.6733331e-05
0.0001076049
0.00010792241
0.00010927558
0.00011115238
0.00011225667
0.00011144298
0.00010794619
0.0001012933
9.1204075e-05
7.7553531e-05
6.0422518e-05
4.0326294e-05
1.674275e-05
0.00011105122
0.00011116679
0.00011207964
0.00011342077
0.00011401484
0.00011275832
0.00010888878
0.0001019282
9.1593617e-05
7.7760099e-05
6.0508685e-05
4.0350586e-05
1.6751731e-05
0.0001142644
0.00011419493
0.00011469988
0.00011553563
0.00011564286
0.00011396364
0.00010974108
0.00010249272
9.1932193e-05
7.7933544e-05
6.0576835e-05
4.0368098e-05
1.6760238e-05
0.00011724615
0.00011700734
0.00011713563
0.00011749676
0.00011714148
0.00011506018
0.0001105043
0.00010298776
9.2220374e-05
7.8074169e-05
6.06271e-05
4.0378867e-05
1.6768237e-05
0.00012000073
0.00011960702
0.00011938826
0.00011930533
0.00011851239
0.00011604988
0.00011118022
0.00010341472
9.245912e-05
7.8182557e-05
6.0659785e-05
4.0383007e-05
1.6775699e-05
0.00012253433
0.00012199891
0.00012146087
0.00012096373
0.00011975813
0.00011693537
0.00011177122
0.0001037755
9.2649783e-05
7.8259575e-05
6.067537e-05
4.038071e-05
1.6782601e-05
0.00012485451
0.00012418942
0.00012335793
0.00012247543
0.00012088198
0.00011771985
0.00011228017
0.00010407244
9.2794088e-05
7.8306368e-05
6.0674513e-05
4.037225e-05
1.6788927e-05
0.00012696987
0.00012618605
0.00012508505
0.0001238448
0.0001218879
0.00011840706
0.0001127104
0.00010430826
9.2894097e-05
7.8324341e-05
6.0658036e-05
4.0357971e-05
1.6794666e-05
0.00012888965
0.00012799709
0.00012664869
0.00012507695
0.00012278041
0.00011900114
0.00011306563
0.00010448606
9.2952171e-05
7.8315127e-05
6.0626909e-05
4.0338285e-05
1.6799815e-05
0.00013062356
0.00012963136
0.00012805596
0.00012617758
0.00012356447
0.00011950664
0.00011334986
0.0001046092
9.2970916e-05
7.8280556e-05
6.0582228e-05
4.0313657e-05
1.6804378e-05
0.00013218154
0.00013109804
0.00012931442
0.00012715285
0.00012424541
0.00011992833
0.00011356735
0.00010468125
9.2953132e-05
7.822261e-05
6.0525192e-05
4.0284595e-05
1.6808365e-05
0.00013357364
0.00013240646
0.00013043196
0.00012800923
0.0001248288
0.0001202712
0.0001137225
0.00010470594
9.2901758e-05
7.8143388e-05
6.0457069e-05
4.0251636e-05
1.681179e-05
0.00013480988
0.00013356602
0.00013141661
0.00012875341
0.00012532039
0.00012054036
0.00011381982
0.0001046871
9.2819823e-05
7.8045061e-05
6.0379175e-05
4.0215333e-05
1.6814674e-05
0.00013590017
0.00013458606
0.00013227648
0.00012939217
0.00012572603
0.00012074098
0.00011386387
0.00010462858
9.2710393e-05
7.792983e-05
6.0292843e-05
4.0176244e-05
1.6817042e-05
0.00013685422
0.00013547579
0.00013301964
0.00012993235
0.00012605158
0.00012087821
0.00011385917
0.00010453423
9.2576528e-05
7.7799897e-05
6.01994e-05
4.0134916e-05
1.6818922e-05
0.00013768153
0.00013624423
0.00013365405
0.00013038073
0.00012630288
0.00012095719
0.00011381021
0.00010440783
9.2421245e-05
7.7657426e-05
6.0100148e-05
4.0091882e-05
1.6820345e-05
0.00013839125
0.00013690012
0.00013418753
0.00013074401
0.00012648569
0.00012098292
0.00011372137
0.0001042531
9.2247479e-05
7.7504519e-05
5.9996339e-05
4.0047648e-05
1.6821343e-05
0.00013899227
0.00013745194
0.00013462766
0.00013102872
0.00012660561
0.00012096032
0.00011359688
0.00010407361
9.2058062e-05
7.7343192e-05
5.9889166e-05
4.0002688e-05
1.682195e-05
0.00013949308
0.00013790784
0.00013498179
0.00013124122
0.00012666813
0.00012089411
0.00011344085
0.00010387278
9.1855694e-05
7.7175356e-05
5.9779747e-05
3.995744e-05
1.6822201e-05
0.00013990183
0.00013827564
0.00013525699
0.00013138765
0.00012667852
0.00012078887
0.00011325719
0.00010365388
9.1642931e-05
7.7002803e-05
5.9669118e-05
3.99123e-05
1.6822129e-05
0.00014022626
0.00013856279
0.00013546004
0.0001314739
0.00012664186
0.00012064894
0.00011304963
0.00010342
9.1422166e-05
7.6827196e-05
5.9558226e-05
3.9867624e-05
1.6821768e-05
0.00014047377
0.00013877639
0.00013559738
0.00013150562
0.00012656298
0.0001204785
0.0001128217
0.00010317402
9.1195627e-05
7.6650063e-05
5.9447926e-05
3.9823724e-05
1.682115e-05
0.00014065131
0.00013892317
0.00013567517
0.00013148818
0.00012644651
0.00012028147
0.0001125767
0.00010291866
9.0965366e-05
7.6472792e-05
5.9338982e-05
3.9780872e-05
1.6820308e-05
0.00014076551
0.00013900948
0.00013569922
0.00013142668
0.0001262968
0.00012006156
0.00011231775
0.0001026564
9.0733261e-05
7.6296635e-05
5.9232063e-05
3.9739298e-05
1.681927e-05
0.00014082255
0.00013904132
0.00013567502
0.00013132593
0.000126118
0.00011982226
0.00011204772
0.00010238956
9.0501018e-05
7.6122703e-05
5.9127751e-05
3.9699193e-05
1.6818065e-05
0.0001408283
0.00013902432
0.00013560776
0.00013119049
0.00012591397
0.00011956683
0.00011176929
0.00010212022
9.0270163e-05
7.5951961e-05
5.9026496e-05
3.9660497e-05
1.6816719e-05
0.00014078821
0.00013896377
0.00013550228
0.00013102463
0.00012568836
0.00011929828
0.00011148493
0.0001018503
9.0042052e-05
7.5785235e-05
5.8928651e-05
3.9623163e-05
1.6815251e-05
0.00014070741
0.00013886463
0.00013536314
0.00013083232
0.00012544456
0.00011901945
0.00011119688
0.0001015815
8.9817856e-05
7.5623162e-05
5.8834239e-05
3.9587479e-05
1.6813682e-05
0.00014059069
0.00013873151
0.00013519459
0.00013061732
0.00012518572
0.00011873291
0.0001109072
0.00010131536
8.9598604e-05
7.5466322e-05
5.87436e-05
3.9553573e-05
1.6812032e-05
0.0001404425
0.00013856871
0.00013500059
0.00013038309
0.00012491477
0.00011844105
0.00011061773
0.0001010532
8.9385085e-05
7.5314841e-05
5.865717e-05
3.9521536e-05
1.6810319e-05
0.00014026697
0.00013838024
0.00013478482
0.00013013286
0.00012463441
0.00011814603
0.00011033012
0.00010079616
8.9177931e-05
7.5169414e-05
5.8575093e-05
3.9491418e-05
1.6808565e-05
0.00014006794
0.00013816982
0.0001345507
0.0001298696
0.00012434713
0.00011784982
0.00011004584
0.00010054522
8.8977686e-05
7.5030502e-05
5.8497496e-05
3.9463251e-05
1.6806785e-05
0.00013984898
0.00013794086
0.00013430138
0.00012959607
0.00012405519
0.00011755419
0.00010976613
0.00010030104
8.8785152e-05
7.4898352e-05
5.842446e-05
3.9437048e-05
1.6804995e-05
0.00013961334
0.00013769654
0.00013403978
0.00012931479
0.00012376064
0.00011726068
0.00010949202
0.00010006457
8.8600795e-05
7.4773142e-05
5.8356021e-05
3.9412799e-05
1.6803208e-05
0.00013936407
0.00013743978
0.00013376855
0.00012902805
0.00012346534
0.00011697066
0.00010922451
9.9836602e-05
8.8424962e-05
7.4654989e-05
5.8292178e-05
3.9390478e-05
1.6801437e-05
0.00013910391
0.00013717325
0.00013349014
0.00012873792
0.00012317089
0.00011668527
0.00010896469
9.9617682e-05
8.825791e-05
7.4543949e-05
5.8232895e-05
3.9370044e-05
1.6799691e-05
0.00013883541
0.00013689937
0.00013320674
0.00012844624
0.0001228787
0.00011640587
0.00010871336
9.9408254e-05
8.8099809e-05
7.4440026e-05
5.8178108e-05
3.9351446e-05
1.6797979e-05
0.00013856084
0.00013662033
0.00013292028
0.00012815465
0.00012259032
0.00011613348
0.00010847117
9.9208656e-05
8.7950758e-05
7.4343174e-05
5.8127724e-05
3.9334622e-05
1.679631e-05
0.00013828223
0.00013633806
0.00013263259
0.00012786482
0.00012230701
0.00011586903
0.00010823868
9.9019129e-05
8.7810784e-05
7.4253304e-05
5.8081627e-05
3.9319502e-05
1.6794689e-05
0.00013800146
0.00013605441
0.00013234538
0.00012757821
0.00012202991
0.00011561327
0.00010801631
9.8839828e-05
8.7679852e-05
7.4170285e-05
5.8039684e-05
3.9306013e-05
1.6793121e-05
0.00013772024
0.00013577105
0.0001320602
0.00012729612
0.00012175999
0.00011536684
0.00010780438
9.8670828e-05
8.7557875e-05
7.4093956e-05
5.8001744e-05
3.9294074e-05
1.6791612e-05
0.00013744014
0.0001354895
0.00013177842
0.00012701969
0.00012149809
0.00011513025
0.00010760313
9.8512133e-05
8.7444711e-05
7.4024124e-05
5.7967644e-05
3.9283602e-05
1.6790163e-05
0.00013716258
0.00013521114
0.00013150127
0.00012674991
0.00012124492
0.00011490392
0.00010741269
9.8363684e-05
8.7340181e-05
7.3960576e-05
5.7937211e-05
3.9274515e-05
1.6788779e-05
0.00013688883
0.00013493717
0.00013122985
0.00012648767
0.00012100108
0.00011468817
0.00010723313
9.8225364e-05
8.7244068e-05
7.3903076e-05
5.7910265e-05
3.9266726e-05
1.678746e-05
0.00013662002
0.0001346687
0.0001309651
0.00012623369
0.00012076705
0.00011448321
0.00010706445
9.8097009e-05
8.7156127e-05
7.3851379e-05
5.7886625e-05
3.9260154e-05
1.6786208e-05
0.00013635717
0.00013440666
0.00013070785
0.00012598861
0.00012054323
0.00011428919
0.0001069066
9.7978417e-05
8.7076087e-05
7.3805227e-05
5.7866107e-05
3.9254715e-05
1.6785024e-05
0.00013610114
0.00013415189
0.00013045881
0.00012575296
0.0001203299
0.00011410618
0.00010675945
9.7869345e-05
8.700366e-05
7.3764355e-05
5.7848528e-05
3.925033e-05
1.6783907e-05
0.00013585271
0.00013390511
0.00013021859
0.00012552717
0.00012012729
0.0001139342
0.00010662284
9.7769523e-05
8.6938541e-05
7.3728495e-05
5.7833705e-05
3.9246922e-05
1.6782859e-05
0.00013561254
0.00013366694
0.00012998769
0.00012531157
0.00011993553
0.00011377318
0.00010649655
9.7678652e-05
8.6880413e-05
7.3697377e-05
5.782146e-05
3.9244416e-05
1.6781877e-05
0.00013538117
0.00013343787
0.00012976653
0.00012510641
0.00011975469
0.00011362301
0.00010638036
9.7596411e-05
8.6828948e-05
7.3670726e-05
5.7811614e-05
3.9242738e-05
1.6780962e-05
0.00013515905
0.00013321833
0.00012955541
0.00012491187
0.00011958477
0.00011348354
0.00010627396
9.7522456e-05
8.6783808e-05
7.3648267e-05
5.7803992e-05
3.9241816e-05
1.6780112e-05
0.00013494656
0.00013300864
0.00012935458
0.00012472804
0.00011942571
0.00011335454
0.00010617705
9.7456426e-05
8.6744647e-05
7.3629725e-05
5.779842e-05
3.9241581e-05
1.6779327e-05
0.00013474396
0.00013280903
0.00012916418
0.00012455495
0.00011927739
0.00011323577
0.00010608928
9.7397945e-05
8.6711119e-05
7.3614828e-05
5.7794729e-05
3.9241965e-05
1.6778603e-05
0.00013455145
0.00013261968
0.0001289843
0.00012439256
0.00011913964
0.00011312695
0.00010601029
9.7346632e-05
8.6682873e-05
7.3603307e-05
5.7792756e-05
3.9242904e-05
1.677794e-05
0.00013436916
0.00013244068
0.00012881497
0.00012424079
0.00011901224
0.00011302775
0.0001059397
9.7302097e-05
8.6659567e-05
7.3594901e-05
5.7792343e-05
3.9244337e-05
1.6777335e-05
0.00013419714
0.00013227205
0.00012865614
0.0001240995
0.00011889496
0.00011293784
0.00010587713
9.7263954e-05
8.6640863e-05
7.3589361e-05
5.7793343e-05
3.9246208e-05
1.6776786e-05
0.00013403539
0.00013211378
0.00012850774
0.00012396852
0.00011878751
0.00011285687
0.00010582217
9.7231821e-05
8.6626434e-05
7.3586446e-05
5.7795615e-05
3.9248466e-05
1.677629e-05
0.00013388387
0.00013196578
0.00012836961
0.00012384761
0.00011868959
0.00011278446
0.00010577445
9.7205318e-05
8.6615961e-05
7.3585927e-05
5.7799029e-05
3.9251063e-05
1.6775846e-05
0.00013374248
0.00013182793
0.0001282416
0.00012373654
0.00011860088
0.00011272023
0.00010573354
9.7184074e-05
8.6609136e-05
7.3587585e-05
5.780346e-05
3.9253954e-05
1.677545e-05
0.00013361106
0.00013170007
0.00012812348
0.00012363502
0.00011852102
0.00011266379
0.00010569906
9.7167717e-05
8.6605657e-05
7.3591207e-05
5.7808789e-05
3.9257096e-05
1.6775102e-05
0.00013348944
0.00013158199
0.000128015
0.00012354274
0.00011844964
0.00011261473
0.00010567059
9.7155883e-05
8.6605228e-05
7.3596587e-05
5.7814901e-05
3.9260448e-05
1.6774799e-05
0.00013337737
0.00013147344
0.00012791588
0.00012345936
0.00011838635
0.00011257263
0.00010564774
9.7148207e-05
8.6607558e-05
7.3603522e-05
5.7821682e-05
3.9263967e-05
1.6774538e-05
0.0001332746
0.00013137415
0.00012782579
0.00012338451
0.00011833076
0.00011253708
0.00010563009
9.7144332e-05
8.6612363e-05
7.3611817e-05
5.7829023e-05
3.9267615e-05
1.6774316e-05
0.00013318085
0.0001312838
0.00012774442
0.00012331782
0.00011828245
0.00011250766
0.00010561724
9.714391e-05
8.661937e-05
7.3621285e-05
5.7836822e-05
3.9271353e-05
1.6774131e-05
0.00013309579
0.00013120208
0.00012767139
0.00012325891
0.000118241
0.00011248395
0.00010560882
9.7146609e-05
8.6628324e-05
7.3631755e-05
5.7844985e-05
3.9275149e-05
1.6773979e-05
0.00013301911
0.00013112865
0.00012760635
0.00012320738
0.00011820603
0.00011246555
0.00010560444
9.7152119e-05
8.6638987e-05
7.364307e-05
5.785343e-05
3.9278975e-05
1.6773859e-05
0.00013295048
0.00013106317
0.00012754895
0.00012316286
0.00011817712
0.00011245209
0.00010560377
9.7160154e-05
8.6651147e-05
7.3655092e-05
5.7862089e-05
3.9282811e-05
1.6773768e-05
0.00013288957
0.0001310053
0.00012749882
0.00012312496
0.00011815391
0.00011244319
0.00010560649
9.717045e-05
8.6664611e-05
7.3667704e-05
5.7870903e-05
3.9286641e-05
1.6773703e-05
0.00013283603
0.0001309547
0.0001274556
0.00012309332
0.00011813603
0.00011243851
0.00010561228
9.7182762e-05
8.6679205e-05
7.3680798e-05
5.7879824e-05
3.9290453e-05
1.6773664e-05
0.00013278953
0.000130911
0.00012741893
0.00012306757
0.0001181231
0.00011243771
0.00010562086
9.719686e-05
8.6694764e-05
7.3694276e-05
5.7888807e-05
3.9294236e-05
1.6773648e-05
0.00013274969
0.00013087384
0.00012738844
0.00012304732
0.00011811476
0.00011244047
0.00010563193
9.7212513e-05
8.6711126e-05
7.370804e-05
5.7897804e-05
3.9297975e-05
1.6773656e-05
0.00013271614
0.00013084284
0.00012736373
0.0001230322
0.00011811066
0.00011244642
0.00010564521
9.7229493e-05
8.6728126e-05
7.3721985e-05
5.7906764e-05
3.9301653e-05
1.6773684e-05
0.00013268849
0.00013081761
0.00012734441
0.00012302181
0.00011811039
0.00011245524
0.00010566041
9.7247563e-05
8.6745594e-05
7.3736004e-05
5.7915631e-05
3.9305248e-05
1.6773731e-05
0.00013266632
0.00013079773
0.00012733006
0.00012301574
0.00011811358
0.00011246658
0.00010567721
9.7266488e-05
8.6763357e-05
7.3749986e-05
5.7924342e-05
3.9308736e-05
1.6773794e-05
0.00013264922
0.00013078278
0.00012732028
0.00012301359
0.00011811985
0.00011248008
0.00010569535
9.728604e-05
8.6781251e-05
7.3763822e-05
5.7932841e-05
3.9312096e-05
1.6773871e-05
0.00013263678
0.00013077236
0.00012731464
0.00012301495
0.00011812884
0.00011249544
0.00010571454
9.7306012e-05
8.6799126e-05
7.377742e-05
5.7941079e-05
3.9315308e-05
1.6773958e-05
0.0001326286
0.00013076606
0.00012731277
0.00012301948
0.0001181402
0.00011251236
0.00010573455
9.7326225e-05
8.6816863e-05
7.3790707e-05
5.794902e-05
3.9318363e-05
1.6774054e-05
0.00013262433
0.00013076354
0.00012731432
0.00012302683
0.00011815365
0.0001125306
0.00010575519
9.7346539e-05
8.6834371e-05
7.3803637e-05
5.7956649e-05
3.9321252e-05
1.6774156e-05
0.00013262364
0.00013076447
0.00012731897
0.00012303672
0.00011816892
0.00011254994
0.0001057763
9.7366851e-05
8.6851594e-05
7.3816189e-05
5.7963962e-05
3.9323963e-05
1.6774263e-05
0.00013262625
0.00013076857
0.00012732646
0.0001230489
0.00011818582
0.00011257022
0.00010579777
9.738709e-05
8.68685e-05
7.3828354e-05
5.7970953e-05
3.9326522e-05
1.6774374e-05
0.00013263191
0.00013077559
0.00012733654
0.00012306315
0.00011820415
0.00011259129
0.00010581949
9.74072e-05
8.6885067e-05
7.3840135e-05
5.7977632e-05
3.9328947e-05
1.6774489e-05
0.00013264038
0.00013078528
0.00012734898
0.00012307927
0.00011822374
0.00011261303
0.00010584138
9.7427131e-05
8.6901273e-05
7.3851515e-05
5.7984031e-05
3.933125e-05
1.6774608e-05
0.00013265141
0.00013079742
0.00012736355
0.00012309704
0.00011824442
0.0001126353
0.00010586334
9.744682e-05
8.6917084e-05
7.3862492e-05
5.7990155e-05
3.9333437e-05
1.6774733e-05
0.00013266475
0.00013081175
0.00012738003
0.00012311625
0.000118266
0.00011265794
0.00010588526
9.7466183e-05
8.6932432e-05
7.3873062e-05
5.7995997e-05
3.933551e-05
1.6774861e-05
0.00013268013
0.00013082799
0.00012739813
0.00012313666
0.00011828826
0.00011268079
0.00010590698
9.7485113e-05
8.6947275e-05
7.3883189e-05
5.8001543e-05
3.9337465e-05
1.6774993e-05
0.00013269723
0.00013084586
0.00012741759
0.00012315801
0.00011831098
0.00011270364
0.00010592838
9.7503501e-05
8.696155e-05
7.389283e-05
5.8006773e-05
3.9339291e-05
1.6775128e-05
0.00013271574
0.00013086504
0.00012743811
0.00012318004
0.00011833394
0.00011272632
0.00010594928
9.7521259e-05
8.6975188e-05
7.3901945e-05
5.8011663e-05
3.934098e-05
1.6775263e-05
0.00013273536
0.00013088523
0.00012745941
0.00012320248
0.0001183569
0.00011274863
0.00010596956
9.7538295e-05
8.6988126e-05
7.3910496e-05
5.8016194e-05
3.9342523e-05
1.6775396e-05
0.00013275578
0.00013090614
0.00012748121
0.00012322509
0.00011837966
0.00011277042
0.00010598913
9.7554535e-05
8.7000321e-05
7.3918459e-05
5.8020357e-05
3.9343916e-05
1.6775527e-05
0.00013277674
0.00013092752
0.00012750328
0.00012324768
0.00011840206
0.00011279158
0.0001060079
9.7569934e-05
8.7011749e-05
7.3925827e-05
5.8024151e-05
3.9345161e-05
1.6775653e-05
0.00013279802
0.00013094914
0.00012752541
0.00012327006
0.00011842399
0.00011281204
0.00010602583
9.7584474e-05
8.7022413e-05
7.3932612e-05
5.8027589e-05
3.9346265e-05
1.6775773e-05
0.00013281945
0.00013097084
0.00012754746
0.00012329214
0.00011844536
0.00011283174
0.0001060429
9.7598167e-05
8.7032337e-05
7.3938843e-05
5.8030694e-05
3.934724e-05
1.6775888e-05
0.00013284091
0.00013099251
0.00012756934
0.00012331383
0.00011846614
0.00011285069
0.00010605914
9.7611043e-05
8.7041562e-05
7.394456e-05
5.8033497e-05
3.9348102e-05
1.6775997e-05
0.0001328623
0.00013101406
0.00012759097
0.00012333511
0.00011848631
0.00011286888
0.00010607457
9.7623147e-05
8.7050137e-05
7.3949807e-05
5.803603e-05
3.9348869e-05
1.6776102e-05
0.00013288358
0.00013103544
0.00012761231
0.00012335592
0.00011850586
0.00011288634
0.00010608921
9.7634522e-05
8.705811e-05
7.3954627e-05
5.8038326e-05
3.9349554e-05
1.6776202e-05
0.00013290467
0.00013105659
0.00012763332
0.00012337626
0.00011852478
0.00011290306
0.00010610311
9.7645205e-05
8.7065519e-05
7.3959056e-05
5.8040408e-05
3.9350169e-05
1.67763e-05
0.00013292554
0.00013107746
0.00012765394
0.00012339607
0.00011854304
0.00011291906
0.00010611627
9.7655216e-05
8.7072388e-05
7.3963114e-05
5.804229e-05
3.9350719e-05
1.6776394e-05
0.00013294609
0.00013109797
0.00012767412
0.00012341532
0.00011856063
0.0001129343
0.00010612868
9.7664559e-05
8.7078726e-05
7.396681e-05
5.8043978e-05
3.9351205e-05
1.6776486e-05
0.00013296626
0.00013111806
0.00012769377
0.00012343393
0.00011857748
0.00011294877
0.00010614032
9.7673227e-05
8.7084529e-05
7.3970142e-05
5.804547e-05
3.9351625e-05
1.6776575e-05
0.00013298593
0.00013113761
0.00012771282
0.00012345183
0.00011859355
0.00011296241
0.00010615118
9.7681202e-05
8.7089788e-05
7.3973102e-05
5.8046758e-05
3.9351971e-05
1.677666e-05
0.00013300502
0.00013115655
0.00012773118
0.00012346897
0.00011860877
0.00011297519
0.00010616123
9.7688472e-05
8.7094492e-05
7.3975684e-05
5.8047836e-05
3.9352242e-05
1.6776741e-05
0.00013302344