/*--------------------------------*- C++ -*----------------------------------*\
| =========                 |                                                 |
| \\      /  F ield         | OpenFOAM: The Open Source CFD Toolbox           |
|  \\    /   O peration     | Version:  2506                                  |
|   \\  /    A nd           | Website:  www.openfoam.com                      |
|    \\/     M anipulation  |                                                 |
\*---------------------------------------------------------------------------*/
FoamFile
{
    version     2.0;
    format      ascii;
    arch        "LSB;label=32;scalar=64";
    class       volVectorField;
    location    "10000/water";
    object      U;
}
// * * * * * * * * * * * * * * * * * * * * * * * * * * * * * * * * * * * * * //

dimensions      [0 1 -1 0 0 0 0];

internalField   nonuniform List<vector> 
2600
(
(0.2509291 -6.6886033e-05 4.4702735e-19)
(0.25093316 -0.00014739222 -2.4692304e-18)
(0.25094167 -0.00023143146 -7.6387746e-19)
(0.2509543 -0.00031980044 -1.0821172e-18)
(0.25097092 -0.0004082391 -8.517494e-20)
(0.25099124 -0.00049673666 7.1124491e-20)
(0.25101467 -0.0005856609 5.8738692e-20)
(0.25103908 -0.00067482201 1.3479763e-20)
(0.25105541 -0.00075972197 2.4180634e-20)
(0.25102652 -0.00083857781 -1.0015573e-19)
(0.25079811 -0.00098580402 -4.6621049e-20)
(0.24954942 -0.001485464 -2.1871177e-19)
(0.2411817 0.0014904344 -6.4502434e-19)
(0.25290631 -5.2391824e-05 5.2558017e-19)
(0.25291356 -0.00012867936 -2.8663816e-18)
(0.25292967 -0.00020232594 -9.8031569e-19)
(0.25295369 -0.00027812692 -9.1427248e-19)
(0.25298503 -0.00035187867 -3.144334e-19)
(0.25302278 -0.00042368282 1.7324037e-19)
(0.25306456 -0.0004936843 -2.5337821e-21)
(0.25310219 -0.00056251339 8.8890601e-20)
(0.25310631 -0.00062550536 8.8401491e-20)
(0.25297401 -0.00066089399 -1.9018754e-19)
(0.25231856 -0.00068576655 -1.299321e-19)
(0.24919071 -0.0011507908 -3.9030728e-19)
(0.23317376 0.00055016191 -7.1133947e-19)
(0.25485703 -5.020126e-05 2.7468115e-19)
(0.25486389 -0.00012463928 -1.1177261e-18)
(0.2548791 -0.00019574884 -1.6209226e-18)
(0.2549016 -0.00026956178 1.1693933e-19)
(0.25493052 -0.00034177627 -3.2638587e-19)
(0.25496396 -0.00041257844 1.9188748e-19)
(0.25499618 -0.00048173979 1.9669211e-19)
(0.25500857 -0.00054996705 5.654206e-19)
(0.25494172 -0.00061637669 4.8622882e-19)
(0.2546073 -0.0006602417 5.9423861e-21)
(0.25332071 -0.00063871076 -1.924062e-19)
(0.2478214 -0.00092597142 -4.3600772e-19)
(0.22526486 0.00012340436 -5.9326175e-19)
(0.25664521 -4.974385e-05 2.5844538e-18)
(0.25665224 -0.00012488064 1.4196976e-18)
(0.2566674 -0.00019721364 5.4777965e-20)
(0.2566896 -0.0002720698 -8.9748333e-21)
(0.25671747 -0.00034495172 -7.1843294e-20)
(0.25674738 -0.00041609227 2.1034681e-19)
(0.25676826 -0.0004848948 2.1028737e-19)
(0.25674667 -0.00055096518 3.6834325e-19)
(0.25658539 -0.00061444887 1.1351642e-19)
(0.2559957 -0.0006636637 4.7420312e-20)
(0.2539403 -0.00063277351 -1.8018354e-19)
(0.24583249 -0.00077044467 -4.2632399e-19)
(0.21800982 -5.9385922e-05 -4.6059541e-19)
(0.25841323 -4.8556775e-05 1.2266769e-18)
(0.2584204 -0.00012219546 1.7310066e-18)
(0.25843571 -0.00019301892 9.5593141e-19)
(0.25845781 -0.00026625064 -5.7259455e-19)
(0.25848442 -0.00033744492 -1.295179e-19)
(0.25850914 -0.00040689654 1.4451263e-19)
(0.25851346 -0.00047389151 2.6413203e-21)
(0.25844542 -0.00053705871 -1.274431e-19)
(0.25816424 -0.00059536594 -1.0766347e-20)
(0.25726648 -0.00064373127 -4.6333295e-20)
(0.25431322 -0.00061442321 -1.6563934e-19)
(0.24352458 -0.00065114415 -2.9517491e-19)
(0.21163262 -0.00012321892 -4.1617759e-19)
(0.26015467 -4.709344e-05 1.8876786e-18)
(0.26016187 -0.0001185153 8.2434445e-19)
(0.26017704 -0.0001870764 4.9346748e-19)
(0.2601984 -0.00025799462 4.9178597e-19)
(0.26022227 -0.00032687702 7.927017e-20)
(0.26023853 -0.00039398781 3.6187291e-20)
(0.26021927 -0.00045855461 8.8799713e-20)
(0.26009115 -0.00051865148 -8.6281745e-20)
(0.25966515 -0.00057157394 -4.5430207e-20)
(0.2584067 -0.0006148087 -3.2519068e-20)
(0.25443266 -0.00058544056 -1.3272892e-19)
(0.24102793 -0.0005571206 -2.7689366e-20)
(0.20612335 -0.00013293671 -4.4899281e-19)
(0.26183846 -4.5390267e-05 1.351981e-18)
(0.26184561 -0.00011435405 8.7172989e-19)
(0.26186042 -0.00018050108 8.2857975e-19)
(0.26188043 -0.00024892327 1.1822766e-18)
(0.26190008 -0.00031528561 2.3427838e-19)
(0.26190445 -0.00037977027 -9.9629906e-20)
(0.26185458 -0.00044151446 4.8490901e-20)
(0.2616533 -0.00049832849 3.5146777e-20)
(0.26105826 -0.00054618084 -2.1959128e-19)
(0.25938354 -0.00058222647 -1.355011e-19)
(0.25426994 -0.00054801504 -8.8435308e-20)
(0.23842933 -0.00047868139 -5.9105255e-20)
(0.20141646 -0.00011963306 -5.4662756e-19)
(0.26345768 -4.3664882e-05 -2.4693999e-18)
(0.26346469 -0.00011008557 -2.4373473e-19)
(0.26347885 -0.00017377013 -7.9157612e-20)
(0.26349678 -0.00023963045 -1.8270539e-19)
(0.26351051 -0.00030340684 3.2499167e-20)
(0.26349932 -0.00036518044 -4.6847403e-20)
(0.26341166 -0.00042394823 -3.0170387e-20)
(0.2631242 -0.00047735793 7.7844744e-20)
(0.26233468 -0.00052050214 2.2733607e-19)
(0.26018092 -0.00054846095 -1.184741e-20)
(0.25381559 -0.00050481858 -7.9673931e-20)
(0.23581666 -0.00040978299 6.1480395e-20)
(0.19745226 -9.8494617e-05 -3.1322894e-19)
(0.26501552 -4.2046877e-05 1.5793712e-18)
(0.26502225 -0.00010599907 1.5844299e-18)
(0.26503542 -0.0001673021 1.1172107e-18)
(0.26505044 -0.00023067618 5.0522465e-19)
(0.26505633 -0.00029193976 -1.9802502e-20)
(0.26502564 -0.00035106733 2.2693387e-19)
(0.26489279 -0.0004068816 5.7944445e-20)
(0.26450568 -0.00045685738 1.0799166e-19)
(0.26349313 -0.00049549057 -1.651552e-19)
(0.26078727 -0.00051473411 -6.0485253e-20)
(0.25307513 -0.00045847926 -5.9125671e-20)
(0.23327192 -0.00034737981 1.9755169e-19)
(0.19416843 -7.6932878e-05 -5.9480895e-20)
(0.2665165 -4.057706e-05 1.3942045e-18)
(0.26652283 -0.00010224007 1.1153732e-18)
(0.26653459 -0.00016134013 9.3701736e-19)
(0.26654572 -0.0002224043 7.1914781e-19)
(0.26654166 -0.00028132047 2.091457e-19)
(0.26648729 -0.00033795568 1.2417086e-19)
(0.26630156 -0.0003909415 1.3339511e-19)
(0.26580019 -0.00043752442 -2.0331008e-20)
(0.26453091 -0.00047164498 -2.1273754e-19)
(0.26118849 -0.00048140525 -1.667144e-19)
(0.25206937 -0.00041120617 -5.8407114e-20)
(0.23086314 -0.00029047959 -2.1788635e-19)
(0.19149027 -5.8333256e-05 -2.2227609e-19)
(0.26796591 -3.9276698e-05 -2.2341663e-18)
(0.26797166 -9.8886216e-05 -1.3396573e-18)
(0.26798155 -0.00015601486 9.1414788e-21)
(0.26798768 -0.00021499986 6.5112903e-19)
(0.26797137 -0.00027178437 5.3719936e-19)
(0.26788889 -0.00032612646 1.1366121e-19)
(0.26764202 -0.00037645613 8.740273e-20)
(0.26700984 -0.00041972353 -1.0208239e-19)
(0.26544297 -0.00044912486 -1.2702922e-19)
(0.26137042 -0.00044842588 -6.1512707e-20)
(0.25083979 -0.00036475941 -1.1143371e-19)
(0.22864123 -0.00023936528 -6.2891915e-19)
(0.18933265 -4.3854024e-05 -2.5783811e-19)
(0.26936985 -3.8151202e-05 -2.0006979e-18)
(0.26937484 -9.5961771e-05 -1.577594e-18)
(0.26938229 -0.00015136516 -1.336043e-19)
(0.2693822 -0.00020851724 6.529157e-19)
(0.26935114 -0.00026339986 4.5056874e-19)
(0.26923575 -0.00031565718 1.0461874e-19)
(0.26891866 -0.00036350366 4.3823882e-20)
(0.26813622 -0.00040351927 -1.6900646e-19)
(0.26622207 -0.00042777198 -9.5818528e-20)
(0.26132397 -0.00041560855 -4.8244931e-20)
(0.24944814 -0.00032041762 -8.7166647e-20)
(0.22663743 -0.00019477817 -5.1206248e-19)
(0.18760708 -3.3365972e-05 -3.2808891e-19)
(0.27073452 -3.7186892e-05 6.4908853e-19)
(0.27073851 -9.3441595e-05 -9.7298041e-19)
(0.27074291 -0.00014735094 -2.7909694e-19)
(0.27073523 -0.00020290124 3.8694153e-19)
(0.27068668 -0.00025609589 2.5044622e-19)
(0.27053315 -0.00030645578 -9.2553751e-20)
(0.27013553 -0.00035195662 -1.7421835e-19)
(0.26917943 -0.00038871662 -2.388692e-19)
(0.26685881 -0.00040716161 -1.8188118e-19)
(0.26105041 -0.00038281108 -4.9626657e-20)
(0.24796793 -0.00027903903 -7.3712728e-20)
(0.2248628 -0.00015723519 -3.5072427e-19)
(0.18622942 -2.6089619e-05 -3.0171292e-19)
(0.27206549 -3.6358598e-05 1.0994039e-18)
(0.27206822 -9.1270025e-05 1.589379e-19)
(0.27206885 -0.0001438843 7.8818907e-20)
(0.27205207 -0.00019803069 8.6305078e-19)
(0.27198302 -0.00024971698 -3.2408288e-19)
(0.27178551 -0.0002983267 -3.1890572e-20)
(0.27129541 -0.00034156266 9.3347978e-20)
(0.27013718 -0.00037494839 -3.1692708e-20)
(0.26734241 -0.00038673535 -1.9517302e-19)
(0.2605654 -0.00035005845 -2.268841e-20)
(0.24647172 -0.00024119444 -2.2203576e-19)
(0.22331131 -0.00012666962 -2.0576741e-19)
(0.18512583 -2.1076367e-05 -4.0807403e-19)
(0.27336737 -3.5638787e-05 -5.3600873e-19)
(0.27336856 -8.938186e-05 1.031988e-18)
(0.27336463 -0.00014086217 1.0655274e-18)
(0.27333706 -0.00019376295 3.6600444e-19)
(0.27324415 -0.00024407934 -2.4471834e-19)
(0.27299604 -0.00029103798 -5.6183698e-20)
(0.27239931 -0.00033202382 2.1375394e-19)
(0.27100443 -0.00036176734 1.4399357e-19)
(0.26766283 -0.00036596046 2.1969667e-19)
(0.25989992 -0.00031757792 -1.0636482e-19)
(0.24502002 -0.00020725745 -4.5636484e-19)
(0.22196569 -0.00010242448 -4.476615e-21)
(0.18423545 -1.7507114e-05 -2.011742e-19)
(0.27464382 -3.5002894e-05 1.9214658e-20)
(0.27464313 -8.7716017e-05 4.5249769e-19)
(0.27463375 -0.00013818758 1.2334862e-18)
(0.2745935 -0.00018996324 6.4817625e-19)
(0.27447297 -0.00023900779 3.794966e-19)
(0.27416661 -0.00028436529 -6.0726333e-21)
(0.27344636 -0.00032304577 -1.3379973e-19)
(0.27177364 -0.00034871442 1.3197863e-19)
(0.26781391 -0.00034445792 -9.177719e-21)
(0.25909705 -0.00028576382 -1.7286599e-19)
(0.2436552 -0.00017740821 -3.5411418e-19)
(0.22080343 -8.3473059e-05 -4.027036e-19)
(0.18351045 -1.4804614e-05 4.8340863e-20)
(0.27589768 -3.4431106e-05 1.2279304e-18)
(0.27589473 -8.6221418e-05 2.469767e-19)
(0.27587888 -0.00013577914 4.4988048e-19)
(0.27582384 -0.00018651757 5.981334e-19)
(0.27567139 -0.00023435206 3.3428126e-19)
(0.27529788 -0.00027811161 1.3824099e-19)
(0.27443375 -0.00031435606 -1.8357668e-19)
(0.27243556 -0.00033536392 2.1341601e-20)
(0.26779662 -0.00032206948 -6.9950615e-20)
(0.25820551 -0.00025510597 -1.2498687e-19)
(0.24240122 -0.00015160162 -1.0390289e-19)
(0.21980119 -6.8691003e-05 -2.989414e-19)
(0.18291435 -1.2618555e-05 -2.7975669e-19)
(0.27713109 -3.3908296e-05 1.3057467e-18)
(0.27712546 -8.4858001e-05 5.7246345e-19)
(0.27710201 -0.00013357264 3.7086021e-19)
(0.27702977 -0.00018333502 4.0048801e-19)
(0.27684047 -0.00022998947 5.8713343e-19)
(0.2763893 -0.00027211088 3.2664779e-19)
(0.27535691 -0.00030570399 -1.3677913e-19)
(0.2729805 -0.00032135787 -1.2253526e-19)
(0.26762111 -0.00029886295 -1.0040393e-19)
(0.25727242 -0.00022610441 -1.3661345e-19)
(0.24126718 -0.00012956886 -1.9823342e-20)
(0.21893722 -5.7057439e-05 -2.5254456e-19)
(0.18241982 -1.0759088e-05 -2.8544684e-19)
(0.27834572 -3.3423243e-05 1.6909235e-18)
(0.27833694 -8.3595439e-05 8.7852335e-19)
(0.2783046 -0.00013151911 2.9805888e-19)
(0.27821241 -0.00018034488 7.4398051e-19)
(0.27798052 -0.00022582105 3.6592296e-19)
(0.27743925 -0.00026622306 4.3445739e-19)
(0.27620962 -0.00029685486 3.6481517e-19)
(0.27340008 -0.00030643644 -1.7633772e-20)
(0.26730692 -0.00027509384 -3.2531326e-20)
(0.25633756 -0.00019918431 -1.8526367e-19)
(0.24025214 -0.00011087581 -1.2640976e-19)
(0.21819234 -4.7749373e-05 -2.8943686e-19)
(0.18200662 -9.13036e-06 -4.0749819e-19)
(0.27954284 -3.2967676e-05 8.8439204e-19)
(0.27953036 -8.2411065e-05 1.341558e-18)
(0.27948767 -0.00012958149 7.5746392e-19)
(0.27937237 -0.00017749197 7.8104532e-20)
(0.27909121 -0.00022176547 2.8693888e-20)
(0.27844503 -0.00026032527 3.568576e-19)
(0.27698441 -0.00028758731 5.3042076e-19)
(0.27368915 -0.00029046173 1.5835379e-19)
(0.26688073 -0.00025114513 2.2196297e-19)
(0.25543062 -0.00017462897 2.3976709e-19)
(0.2393495 -9.5013868e-05 -1.5414256e-19)
(0.21755 -4.0152316e-05 3.9321339e-21)
(0.18165972 -7.6839641e-06 -1.2485161e-19)
(0.28072346 -3.253541e-05 -1.663582e-18)
(0.28070667 -8.1287793e-05 2.6424369e-19)
(0.28065194 -0.00012773124 5.4314927e-19)
(0.28050986 -0.0001747318 1.3364117e-19)
(0.28017156 -0.00021775304 2.148733e-20)
(0.27940289 -0.00025430189 3.1409582e-19)
(0.27767312 -0.0002776979 5.1959933e-19)
(0.27384765 -0.00027342828 4.0076953e-19)
(0.26637281 -0.00022746055 1.6717062e-19)
(0.2545711 -0.00015254852 -2.2005074e-19)
(0.23855012 -8.1484044e-05 -2.9412546e-19)
(0.21699614 -3.3827441e-05 -9.6955382e-20)
(0.18136794 -6.3925414e-06 1.1406054e-19)
(0.28188837 -3.2121655e-05 -1.2407883e-18)
(0.28186655 -8.0212342e-05 7.2670648e-19)
(0.28179785 -0.00012594549 -1.8269047e-19)
(0.28162471 -0.00017202641 4.4489351e-20)
(0.28121999 -0.00021372065 2.9125285e-19)
(0.28030804 -0.00024803604 2.5002614e-19)
(0.27826773 -0.00026701329 2.7789842e-19)
(0.27388156 -0.00025545693 3.594217e-19)
(0.26581311 -0.00020447968 6.5248051e-20)
(0.25377001 -0.00013289058 -4.1350259e-19)
(0.23784411 -6.984993e-05 -2.8106893e-19)
(0.21651886 -2.8467159e-05 -9.3462353e-20)
(0.18112283 -5.2370915e-06 -5.4550014e-20)
(0.28303819 -3.1722485e-05 -3.0779226e-19)
(0.28301052 -7.9173848e-05 7.9486644e-19)
(0.28292559 -0.00012420468 3.589995e-20)
(0.28271638 -0.00016934095 -5.9681269e-19)
(0.2822343 -0.00020960734 7.3670565e-19)
(0.28115476 -0.00024140493 2.3436204e-19)
(0.27876144 -0.00025540748 -3.6296903e-20)
(0.27380292 -0.00023677356 2.7653058e-19)
(0.26522808 -0.00018258168 5.3312767e-20)
(0.25303215 -0.00011548282 1.0244134e-19)
(0.23722187 -5.975696e-05 7.4214971e-22)
(0.21610816 -2.3855673e-05 -1.0817895e-19)
(0.18091788 -4.2018368e-06 1.1344577e-19)
(0.28417339 -3.1334452e-05 2.6453537e-18)
(0.28413893 -7.8162816e-05 -6.4564662e-20)
(0.28403512 -0.00012249081 -4.1743272e-20)
(0.28378396 -0.00016664113 2.8805432e-20)
(0.28321158 -0.00020535009 7.8347753e-20)
(0.28193659 -0.0002342804 2.4113784e-19)
(0.27914984 -0.00024281873 5.5329309e-19)
(0.27362852 -0.0002176778 6.7937192e-19)
(0.26463906 -0.00016204557 3.0150661e-20)
(0.25235823 -0.00010008752 -3.8741943e-19)
(0.23667446 -5.0928421e-05 -3.3106908e-19)
(0.21575559 -1.9839547e-05 -1.0847199e-19)
(0.18074793 -3.2726287e-06 4.1579085e-20)
(0.28529433 -3.0954305e-05 4.7892125e-18)
(0.28525196 -7.7170336e-05 1.777465e-18)
(0.28512619 -0.00012078599 1.1163087e-18)
(0.28482614 -0.00016389138 2.982278e-19)
(0.28414822 -0.00020087986 9.5926369e-20)
(0.28264669 -0.00022653515 4.8010165e-20)
(0.27943202 -0.00022926075 3.8542227e-19)
(0.27337791 -0.0001985062 2.8101385e-19)
(0.26406181 -0.00014303338 2.317237e-19)
(0.25174654 -8.6449658e-05 1.9647102e-19)
(0.23619383 -4.3151062e-05 -5.6972101e-20)
(0.21545404 -1.6307472e-05 -5.9924727e-20)
(0.18060883 -2.4366998e-06 1.4445991e-20)
(0.28640123 -3.0578784e-05 -8.0737019e-19)
(0.28634965 -7.6187463e-05 1.8795825e-18)
(0.28619826 -0.00011907139 1.0274808e-18)
(0.28584114 -0.00016105348 1.43232e-19)
(0.28503985 -0.00019611847 5.1707604e-19)
(0.2832784 -0.000218054 -4.3238451e-20)
(0.27961117 -0.00021482469 -2.3084694e-19)
(0.27307114 -0.00017959425 2.3898972e-19)
(0.26350715 -0.00012559655 2.1543296e-19)
(0.25119402 -7.4328939e-05 4.9010278e-19)
(0.23577276 -3.625935e-05 4.6153342e-19)
(0.21519748 -1.3176824e-05 4.4242711e-20)
(0.18049716 -1.6827546e-06 1.0879088e-19)
(0.28749419 -3.0204452e-05 -2.2282454e-18)
(0.28743185 -7.5204721e-05 1.5773822e-18)
(0.28725056 -0.00011732616 -1.4783916e-20)
(0.28682673 -0.0001580853 3.9329431e-19)
(0.28588145 -0.00019097762 3.0344654e-19)
(0.28382593 -0.00020874812 1.5016569e-19)
(0.27969464 -0.00019967156 -9.766803e-20)
(0.27272685 -0.00016124191 2.2760895e-20)
(0.26298189 -0.00010969943 5.8545615e-20)
(0.25069697 -6.3514994e-05 -4.455456e-20)
(0.23540492 -3.0122523e-05 2.3307031e-19)
(0.21498079 -1.038479e-05 2.5760267e-19)
(0.18041 -1.0010029e-06 8.704342e-21)
(0.28857317 -2.9827535e-05 -1.150863e-19)
(0.28849825 -7.4211613e-05 2.0128388e-19)
(0.28828196 -0.00011552671 8.2710839e-20)
(0.28778008 -0.00015493915 2.1922826e-20)
(0.28666738 -0.00018536089 2.3178555e-19)
(0.28428521 -0.00019856895 3.6410506e-19)
(0.27969326 -0.00018401636 3.2872301e-19)
(0.27236107 -0.00014368789 1.4076065e-19)
(0.26248991 -9.5249848e-05 2.8182019e-19)
(0.25025143 -5.3830538e-05 9.2771345e-20)
(0.23508472 -2.4635261e-05 7.3644004e-20)
(0.21479959 -7.882482e-06 1.4599923e-19)
(0.18034487 -3.8308274e-07 6.6937796e-20)
(0.28963798 -2.944375e-05 1.0634005e-18)
(0.28954832 -7.3196107e-05 -1.1449799e-18)
(0.28929102 -0.00011364594 -4.120958e-19)
(0.2886978 -0.00015155982 4.9970444e-19)
(0.28739173 -0.00017916927 -2.092942e-20)
(0.28465455 -0.00018751865 3.7876388e-19)
(0.27962017 -0.0001681064 9.2459489e-19)
(0.2719867 -0.00012709647 7.3530622e-19)
(0.26203302 -8.2127517e-05 2.3588756e-19)
(0.24985346 -4.5128132e-05 -3.1872824e-19)
(0.23480728 -1.9711267e-05 -2.9232502e-19)
(0.21465012 -5.6309912e-06 -1.0979745e-19)
(0.18029962 1.781233e-07 4.1703837e-20)
(0.29068824 -2.9047998e-05 2.5049986e-18)
(0.29058125 -7.2143823e-05 8.7322745e-19)
(0.29027586 -0.00011165221 9.6804916e-19)
(0.28957586 -0.00014788248 4.3021765e-19)
(0.28804865 -0.00017230926 2.9456801e-19)
(0.28493523 -0.00017565385 3.0300784e-19)
(0.2794894 -0.00015219579 4.5355692e-19)
(0.2716136 -0.00011155662 2.1111812e-19)
(0.26161163 -7.0203575e-05 2.9025001e-19)
(0.24949925 -3.7283223e-05 1.8488505e-19)
(0.23456828 -1.5277074e-05 -8.2746987e-20)
(0.21452909 -3.5978819e-06 5.6582521e-20)
(0.18027234 6.8891076e-07 2.9229716e-20)
(0.29172336 -2.8634281e-05 9.579193e-21)
(0.291596 -7.1037637e-05 1.2600641e-18)
(0.29123415 -0.00010950892 1.2710988e-18)
(0.29040962 -0.00014383257 -2.550627e-19)
(0.28863287 -0.0001647043 5.3065394e-19)
(0.28513156 -0.00016308396 4.4494692e-19)
(0.27931466 -0.00013652207 8.8294127e-21)
(0.27124896 -9.7093579e-05 3.56232e-19)
(0.26122524 -5.9353675e-05 3.7348685e-19)
(0.24918522 -3.0190203e-05 6.4942769e-19)
(0.23436395 -1.1270323e-05 4.6438299e-19)
(0.2144337 -1.7305637e-06 1.3127982e-19)
(0.18026136 1.1761509e-06 1.0315455e-19)
(0.29274252 -2.8196035e-05 1.7206103e-18)
(0.29259116 -6.9858462e-05 1.1920553e-18)
(0.29216305 -0.00010717577 -9.5983092e-20)
(0.29119393 -0.00013933086 2.8364872e-19)
(0.28914031 -0.00015631033 3.5090616e-19)
(0.28525057 -0.00014996784 2.2231738e-19)
(0.27910837 -0.000121293 -1.1492597e-20)
(0.2708978 -8.3692876e-05 7.7352388e-20)
(0.26087272 -4.9471637e-05 6.7164155e-20)
(0.24890802 -2.3766806e-05 2.0099268e-19)
(0.23419085 -7.6476831e-06 1.7781908e-19)
(0.21436056 -1.6274478e-08 1.3136937e-20)
(0.18026627 1.6403928e-06 -5.9917375e-20)
(0.2937446 -2.7725099e-05 3.3042843e-18)
(0.29356496 -6.8583191e-05 -2.6955709e-20)
(0.29305914 -0.00010460504 -4.7475032e-19)
(0.29192334 -0.00013429446 3.8614515e-19)
(0.28956868 -0.00014712079 3.7769538e-19)
(0.2853013 -0.00013649481 4.2192051e-20)
(0.27888121 -0.00010666839 7.5678732e-20)
(0.27056351 -7.1310505e-05 2.2134858e-19)
(0.26055265 -4.0462924e-05 9.740439e-20)
(0.24866458 -1.7940283e-05 2.6356692e-19)
(0.23404606 -4.353928e-06 8.0970141e-20)
(0.21430781 1.5373916e-06 1.977747e-21)
(0.18028522 2.0563853e-06 -3.2089166e-20)
(0.29472815 -2.7211026e-05 -1.4131028e-18)
(0.29451518 -6.7183248e-05 -8.0087296e-19)
(0.29391842 -0.00010173907 3.9151919e-19)
(0.29259237 -0.00012864186 7.0436497e-19)
(0.28991788 -0.0001371695 -2.607159e-19)
(0.28529395 -0.00012286454 2.1374945e-19)
(0.27864192 -9.2752949e-05 8.7982111e-19)
(0.27024822 -5.9882466e-05 8.8603176e-19)
(0.26026336 -3.2238685e-05 2.3037941e-19)
(0.24845204 -1.2642396e-05 -2.4961122e-19)
(0.23392646 -1.3358965e-06 -2.4670979e-19)
(0.21427448 2.9561665e-06 2.9830982e-20)
(0.18031663 2.4263113e-06 1.0292135e-21)
(0.29569132 -2.6641403e-05 -2.4346904e-18)
(0.2954391 -6.562555e-05 -1.2457506e-19)
(0.29473631 -9.8512691e-05 2.1821498e-18)
(0.29319592 -0.00012230571 8.4183427e-19)
(0.29019018 -0.00012653598 4.7288953e-20)
(0.2852389 -0.00010927517 3.8134252e-19)
(0.27839743 -7.9607281e-05 6.0879493e-19)
(0.26995312 -4.9342241e-05 9.63318e-20)
(0.26000309 -2.4722189e-05 8.5643233e-20)
(0.24826773 -7.8151004e-06 1.4652226e-19)
(0.23382955 1.4151427e-06 -2.2015459e-19)
(0.21425921 4.2390751e-06 -4.4869824e-20)
(0.18035932 2.7544342e-06 2.1411205e-20)
(0.29663173 -2.6001182e-05 -7.6228709e-19)
(0.29633339 -6.387116e-05 9.3754896e-19)
(0.29550768 -9.4853903e-05 1.7711515e-18)
(0.29372976 -0.00011524121 4.5020888e-19)
(0.29039012 -0.000115339 9.4244642e-19)
(0.28514604 -9.59054e-05 3.9639428e-19)
(0.27815305 -6.7254151e-05 -8.9771326e-20)
(0.26967872 -3.9623341e-05 2.118715e-20)
(0.25977003 -1.784186e-05 1.3329641e-19)
(0.24810923 -3.3839684e-06 5.9438315e-19)
(0.23375398 3.9312058e-06 4.5286947e-19)
(0.21425996 5.3906097e-06 -7.6059536e-20)
(0.18041214 3.0443401e-06 9.3764392e-20)
(0.29754645 -2.5272391e-05 2.6175888e-18)
(0.29719411 -6.1874455e-05 3.275788e-18)
(0.29622706 -9.0687769e-05 8.0466623e-19)
(0.29419101 -0.00010743481 2.4922136e-19)
(0.290524 -0.00010372739 9.240519e-19)
(0.28502427 -8.290338e-05 2.5506869e-19)
(0.27791277 -5.5688945e-05 -1.579588e-19)
(0.26942499 -3.0662237e-05 3.5705864e-20)
(0.25956226 -1.1539682e-05 2.2392956e-19)
(0.24797362 6.7589801e-07 1.3019641e-19)
(0.23369893 6.2277217e-06 4.3205985e-19)
(0.21427538 6.4296365e-06 1.6057279e-19)
(0.18047413 3.303086e-06 -3.7352517e-20)
(0.29843186 -2.443409e-05 3.3756337e-18)
(0.29801658 -5.9582984e-05 1.8555223e-18)
(0.29688883 -8.5943405e-05 7.6584376e-19)
(0.29457851 -9.8910859e-05 4.7397021e-19)
(0.29059935 -9.1868445e-05 6.0165734e-19)
(0.28488126 -7.0382631e-05 4.5377355e-19)
(0.27767954 -4.4890686e-05 1.3976444e-19)
(0.26919163 -2.2395844e-05 3.0812352e-19)
(0.25937815 -5.7364157e-06 3.0363293e-19)
(0.24785972 4.3904859e-06 -4.616947e-20)
(0.2336621 8.301598e-06 2.3191043e-19)
(0.21430404 7.3666985e-06 2.7387534e-19)
(0.18054443 3.5354637e-06 9.9818693e-20)
(0.29928359 -2.3462154e-05 8.564557e-19)
(0.29879547 -5.6937595e-05 3.1934324e-19)
(0.29748763 -8.056163e-05 -7.1537503e-20)
(0.29489309 -8.9732441e-05 1.3918703e-18)
(0.29062422 -7.993235e-05 -1.5752179e-19)
(0.28472341 -5.8420108e-05 5.281188e-19)
(0.27745536 -3.4827532e-05 9.2846826e-19)
(0.26897782 -1.4770406e-05 8.2962377e-19)
(0.25921519 -3.9179654e-07 2.3586803e-19)
(0.24776702 7.7920465e-06 -4.7877546e-19)
(0.23364198 1.0181102e-05 -3.3798112e-19)
(0.21434474 8.2147622e-06 3.0876273e-20)
(0.18062225 3.7449947e-06 1.0237214e-19)
(0.30009637 -2.2329731e-05 -5.7783399e-19)
(0.29952479 -5.3875501e-05 1.1996129e-18)
(0.29801875 -7.4505262e-05 2.6069097e-19)
(0.29513749 -7.999996e-05 9.2492723e-19)
(0.29060659 -6.8080586e-05 3.6147114e-19)
(0.28455591 -4.7062482e-05 5.6274123e-19)
(0.27724164 -2.5459226e-05 6.645513e-19)
(0.2687829 -7.7156706e-06 2.1603754e-19)
(0.25907248 4.51539e-06 1.2483445e-19)
(0.24769346 1.0881381e-05 -1.1062714e-19)
(0.23363709 1.188486e-05 -1.9055184e-19)
(0.21439637 8.9837404e-06 -7.7869025e-20)
(0.1807069 3.9343445e-06 -9.3197355e-20)
(0.30086402 -2.1007838e-05 -3.1051316e-19)
(0.30019808 -5.0335142e-05 2.8966537e-18)
(0.29847859 -6.7767506e-05 2.0352775e-18)
(0.29531608 -6.9843627e-05 -4.8383601e-19)
(0.29055391 -5.6454425e-05 1.1119585e-18)
(0.28438287 -3.6332022e-05 6.5545606e-19)
(0.27703906 -1.674826e-05 -9.1307032e-20)
(0.2686053 -1.1875247e-06 -1.5166033e-19)
(0.25894976 9.0213362e-06 2.1976749e-19)
(0.24763751 1.3689793e-05 6.1156473e-19)
(0.23364609 1.3431085e-05 4.352883e-19)
(0.21445793 9.6806787e-06 -1.7050054e-19)
(0.18079772 4.1050166e-06 -1.0925276e-19)
(0.30157943 -1.9467191e-05 6.2680097e-19)
(0.30080863 -4.6264341e-05 2.265369e-18)
(0.29886499 -6.0378831e-05 1.2281071e-18)
(0.29543444 -5.9413954e-05 1.6844498e-19)
(0.29047287 -4.5169363e-05 3.9724714e-19)
(0.28420752 -2.6229147e-05 1.6976703e-19)
(0.27684812 -8.6362644e-06 -2.9120171e-19)
(0.26844451 4.8386482e-06 -3.8247077e-19)
(0.25884557 1.3135768e-05 1.7866419e-19)
(0.2475977 1.6244095e-05 3.5893948e-19)
(0.23366777 1.4835353e-05 3.5022233e-19)
(0.21452852 1.0311982e-05 -3.8186587e-21)
(0.18089414 4.2585286e-06 -5.7404481e-20)
(0.30223466 -1.7681568e-05 -1.5540421e-19)
(0.3013499 -4.1630427e-05 -5.7454296e-19)
(0.29917751 -5.2409536e-05 2.4398223e-19)
(0.29549883 -4.8869416e-05 1.0623213e-18)
(0.29036918 -3.4313643e-05 1.7735325e-19)
(0.28403214 -1.6747502e-05 4.8976976e-20)
(0.27666826 -1.0890963e-06 4.9210088e-19)
(0.26830088 1.0390987e-05 -2.5610379e-19)
(0.25875851 1.6888492e-05 -3.2102955e-20)
(0.24757272 1.8568189e-05 -4.0790955e-19)
(0.23370102 1.6110024e-05 1.0961942e-22)
(0.21460732 1.0882763e-05 7.1252037e-20)
(0.18099561 4.3960754e-06 -4.4309803e-20)
(0.30282117 -1.5633387e-05 1.7416196e-18)
(0.30181594 -3.643148e-05 8.6719896e-19)
(0.29941741 -4.3968546e-05 5.3784836e-19)
(0.29551566 -3.8365451e-05 5.1248448e-19)
(0.2902477 -2.3945204e-05 4.9170262e-19)
(0.28385859 -7.8477035e-06 4.6503275e-19)
(0.27649982 5.9141454e-06 5.4356781e-19)
(0.26817344 1.5479833e-05 2.0270149e-19)
(0.25868728 2.0310858e-05 -1.4057933e-19)
(0.24756135 2.0682649e-05 1.0143187e-20)
(0.23374484 1.7265712e-05 -9.589142e-21)
(0.21469357 1.1397593e-05 6.4527599e-20)
(0.18110164 4.5187646e-06 -4.0025791e-20)
(0.30333026 -1.3320782e-05 2.1150021e-18)
(0.30220189 -3.0705574e-05 3.3371981e-18)
(0.29958744 -3.5196353e-05 9.0330822e-19)
(0.29549103 -2.8043618e-05 6.2556472e-19)
(0.29011218 -1.4099808e-05 6.8870699e-19)
(0.28368733 4.8520827e-07 7.0169427e-19)
(0.276344 1.2388936e-05 1.1559532e-19)
(0.26806118 2.0135162e-05 2.9030436e-19)
(0.2586307 2.3431384e-05 -7.0877385e-20)
(0.24756246 2.2604593e-05 4.8266937e-19)
(0.23379832 1.8311493e-05 7.4323917e-20)
(0.21478659 1.1860479e-05 2.6831145e-19)
(0.18121176 4.6275566e-06 5.2071891e-20)
(0.30375374 -1.0764892e-05 3.3226002e-23)
(0.30250438 -2.453633e-05 1.6746107e-18)
(0.29969147 -2.625556e-05 2.1805884e-18)
(0.29543051 -1.8024155e-05 -3.1259705e-19)
(0.28996562 -4.7857639e-06 4.0743623e-19)
(0.28352015 8.2431721e-06 4.5001473e-19)
(0.27620025 1.8335937e-05 2.8817045e-19)
(0.26796311 2.4389519e-05 -5.8255871e-20)
(0.25858763 2.6274706e-05 -3.1685202e-21)
(0.24757502 2.4348956e-05 -3.5967498e-20)
(0.2338606 1.9255568e-05 -2.2474528e-20)
(0.21488574 1.2275106e-05 -1.7200006e-19)
(0.18132555 4.7233544e-06 5.464094e-22)
(0.30408466 -8.0145584e-06 2.4418043e-18)
(0.30272186 -1.8051758e-05 1.1117209e-18)
(0.29973407 -1.731584e-05 1.5883421e-18)
(0.29533886 -8.3895286e-06 1.0380719e-19)
(0.28980995 3.9790234e-06 3.6107322e-19)
(0.28335875 1.5424565e-05 1.2159238e-19)
(0.27606809 2.3784801e-05 -3.5270926e-19)
(0.26787825 2.8272348e-05 -2.3702494e-19)
(0.25855702 2.8860228e-05 -1.1900113e-19)
(0.24759809 2.5927671e-05 -6.3991501e-20)
(0.23393092 2.0104457e-05 6.7632663e-20)
(0.21499042 1.2644261e-05 -1.659057e-19)
(0.1814426 4.8067388e-06 -1.9774093e-20)
(0.30431819 -5.1449251e-06 1.4591483e-18)
(0.3028546 -1.1412599e-05 5.9149097e-19)
(0.29971994 -8.533109e-06 -4.1679742e-19)
(0.29521955 7.8214497e-07 1.6045391e-18)
(0.28964857 1.2143148e-05 6.6284557e-19)
(0.28320331 2.2022688e-05 3.1693932e-19)
(0.27594691 2.876519e-05 6.5338184e-19)
(0.26780566 3.1808761e-05 1.8792136e-19)
(0.25853789 3.1205237e-05 -1.1284422e-19)
(0.24763076 2.735177e-05 -4.5961942e-19)
(0.23400854 2.0864247e-05 -2.1085623e-19)
(0.2151001 1.2970583e-05 -6.4594247e-20)
(0.18156252 4.8783008e-06 -2.9214202e-20)
(0.30445221 -2.2472152e-06 -1.0530598e-18)
(0.30290466 -4.7891983e-06 -3.9062288e-19)
(0.2996534 -5.7392479e-08 -9.8794711e-19)
(0.29507686 9.3869299e-06 5.943756e-19)
(0.28948321 1.967061e-05 2.2914521e-19)
(0.28305385 2.8057858e-05 6.0039193e-19)
(0.27583605 3.3302733e-05 1.0419295e-18)
(0.26774441 3.5018245e-05 5.6017372e-19)
(0.25852929 3.3323484e-05 3.0256222e-19)
(0.24767222 2.8629955e-05 -5.3741938e-20)
(0.23409279 2.1539528e-05 -1.0602385e-19)
(0.21521426 1.3255916e-05 3.1336305e-20)
(0.18168496 4.9383652e-06 -3.5712974e-21)
(0.30448759 5.81443e-07 9.0636483e-19)
(0.30287533 1.6332238e-06 2.9525089e-18)
(0.29953939 7.9404222e-06 5.0343897e-19)
(0.29491434 1.7334283e-05 3.247074e-19)
(0.28931491 2.6550423e-05 1.3678047e-19)
(0.28291026 3.3548752e-05 2.4489704e-19)
(0.2757348 3.7416552e-05 -2.3250485e-19)
(0.26769361 3.7916299e-05 1.7736302e-19)
(0.25853035 3.5226134e-05 4.0069435e-19)
(0.24772169 2.9769096e-05 5.8042082e-19)
(0.23418305 2.2133748e-05 1.698051e-19)
(0.2153324 1.3501537e-05 3.0457952e-19)
(0.18180955 4.9870849e-06 7.9721894e-20)
(0.30442824 3.2381426e-06 2.3940175e-18)
(0.30277199 7.6569963e-06 4.6881195e-18)
(0.29938292 1.5304019e-05 2.5950162e-18)
(0.29473444 2.4565384e-05 -4.5751198e-19)
(0.28914434 3.2781704e-05 3.0035598e-19)
(0.28277222 3.8508126e-05 3.0202073e-20)
(0.27564244 4.1120446e-05 -1.8062475e-19)
(0.26765239 4.051458e-05 -2.2013883e-19)
(0.25854021 3.6921351e-05 -1.7454703e-19)
(0.24777843 3.0773889e-05 5.649276e-20)
(0.23427872 2.2648992e-05 -8.4340934e-20)
(0.21545406 1.3708011e-05 -1.0473177e-19)
(0.18193595 5.0243857e-06 -1.4322946e-20)
(0.30428147 5.6355846e-06 3.8230777e-18)
(0.30260141 1.3122375e-05 3.7519113e-18)
(0.29918843 2.1930412e-05 2.1700307e-18)
(0.29453912 3.1047505e-05 6.34546e-19)
(0.28897191 3.8362662e-05 7.0263933e-19)
(0.28263933 4.2943515e-05 4.7359374e-19)
(0.2755582 4.44238e-05 2.2472876e-19)
(0.26761989 4.2820942e-05 -9.2351474e-20)
(0.25855808 3.8414209e-05 1.6826395e-20)
(0.24784174 3.164681e-05 7.1997507e-20)
(0.23437921 2.3085928e-05 1.1492458e-19)
(0.21557877 1.3875151e-05 -1.6452245e-20)
(0.18206381 5.049939e-06 -2.641792e-20)
(0.30405678 7.720532e-06 4.0461189e-20)
(0.30237113 1.7926688e-05 2.4212286e-18)
(0.29896016 2.7756786e-05 3.3443877e-18)
(0.29433004 3.6759479e-05 1.1062849e-18)
(0.28879784 4.3290952e-05 5.8939977e-19)
(0.2825111 4.6859555e-05 4.5285952e-19)
(0.2754813 4.7332541e-05 2.5305574e-21)
(0.26759529 4.483988e-05 2.1293731e-19)
(0.25858316 3.9707034e-05 4.6572361e-19)
(0.24791094 3.238834e-05 3.2961954e-19)
(0.23448396 2.3443953e-05 3.3964186e-19)
(0.21570609 1.4002083e-05 -3.0332174e-20)
(0.18219278 5.0631928e-06 -2.8177019e-20)
(0.30376497 9.4676794e-06 3.8796309e-19)
(0.30208913 2.2015452e-05 2.4490522e-19)
(0.29870222 3.2751887e-05 2.1577045e-18)
(0.29410866 4.1691405e-05 3.9491611e-19)
(0.2886222 4.756626e-05 -3.1049235e-20)
(0.28238699 5.0259421e-05 1.8897989e-19)