/*--------------------------------*- C++ -*----------------------------------*\
| =========                 |                                                 |
| \\      /  F ield         | OpenFOAM: The Open Source CFD Toolbox           |
|  \\    /   O peration     | Version:  2506                                  |
|   \\  /    A nd           | Website:  www.openfoam.com                      |
|    \\/     M anipulation  |                                                 |
\*---------------------------------------------------------------------------*/
FoamFile
{
    version     2.0;
    format      ascii;
    arch        "LSB;label=32;scalar=64";
    class       volScalarField;
    location    "3000/water";
    object      T;
}
// * * * * * * * * * * * * * * * * * * * * * * * * * * * * * * * * * * * * * //

dimensions      [0 0 0 1 0 0 0];

internalField   nonuniform List<scalar> 
6000
(
333.15
333.15
333.15
333.15
333.15
333.15
333.15
333.15
333.15
333.15
333.15
333.14998
333.14989
333.14923
333.14249
333.15
333.15
333.15
333.15
333.15
333.15
333.15
333.15
333.15
333.15
333.14999
333.14994
333.14968
333.14814
333.13652
333.15
333.15
333.15
333.15
333.15
333.15
333.15
333.15
333.15
333.14999
333.14997
333.14986
333.14938
333.14685
333.13149
333.15
333.15
333.15
333.15
333.15
333.15
333.15
333.15
333.15
333.14999
333.14994
333.14976
333.14901
333.14541
333.12707
333.15
333.15
333.15
333.15
333.15
333.15
333.15
333.15
333.14999
333.14997
333.1499
333.14963
333.14858
333.14387
333.12309
333.15
333.15
333.15
333.15
333.15
333.15
333.15
333.15
333.14999
333.14996
333.14985
333.14947
333.1481
333.14225
333.11945
333.15
333.15
333.15
333.15
333.15
333.15
333.15
333.14999
333.14998
333.14993
333.14978
333.14928
333.14757
333.14058
333.11608
333.15
333.15
333.15
333.15
333.15
333.15
333.15
333.14999
333.14997
333.14991
333.1497
333.14907
333.14699
333.13887
333.11295
333.15
333.15
333.15
333.15
333.15
333.15
333.15
333.14999
333.14996
333.14987
333.14961
333.14885
333.14637
333.13713
333.11001
333.15
333.15
333.15
333.15
333.15
333.15
333.14999
333.14998
333.14994
333.14983
333.14951
333.1486
333.14571
333.13537
333.10725
333.15
333.15
333.15
333.15
333.15
333.15
333.14999
333.14997
333.14992
333.14978
333.1494
333.14833
333.14501
333.13361
333.10465
333.15
333.15
333.15
333.15
333.15
333.15
333.14999
333.14997
333.1499
333.14973
333.14927
333.14804
333.14426
333.13185
333.1022
333.15
333.15
333.15
333.15
333.15
333.14999
333.14998
333.14996
333.14988
333.14967
333.14914
333.14773
333.14347
333.13011
333.0999
333.15
333.15
333.15
333.15
333.15
333.14999
333.14998
333.14994
333.14985
333.1496
333.14899
333.1474
333.14264
333.12838
333.09773
333.15
333.15
333.15
333.15
333.15
333.14999
333.14997
333.14993
333.14981
333.14953
333.14884
333.14704
333.14177
333.12667
333.0957
333.15
333.15
333.15
333.15
333.15
333.14999
333.14997
333.14991
333.14978
333.14945
333.14867
333.14666
333.14084
333.12499
333.09381
333.15
333.15
333.15
333.15
333.14999
333.14998
333.14996
333.14989
333.14974
333.14937
333.14849
333.14626
333.13987
333.12335
333.09204
333.15
333.15
333.15
333.15
333.14999
333.14998
333.14995
333.14987
333.14969
333.14928
333.1483
333.14582
333.13886
333.12175
333.0904
333.15
333.15
333.15
333.15
333.14999
333.14998
333.14994
333.14985
333.14965
333.14918
333.1481
333.14535
333.1378
333.12019
333.08887
333.15
333.15
333.15
333.14999
333.14999
333.14997
333.14993
333.14983
333.1496
333.14908
333.14788
333.14484
333.1367
333.11869
333.08747
333.15
333.15
333.15
333.14999
333.14999
333.14996
333.14992
333.1498
333.14954
333.14897
333.14764
333.14429
333.13557
333.11724
333.08618
333.15
333.15
333.15
333.14999
333.14998
333.14996
333.1499
333.14977
333.14948
333.14885
333.14739
333.14371
333.1344
333.11585
333.08499
333.15
333.15
333.15
333.14999
333.14998
333.14995
333.14988
333.14974
333.14942
333.14872
333.14711
333.14308
333.13322
333.11453
333.08389
333.15
333.15
333.14999
333.14999
333.14998
333.14994
333.14987
333.1497
333.14935
333.14858
333.14682
333.14241
333.13202
333.11326
333.08288
333.15
333.15
333.14999
333.14999
333.14997
333.14993
333.14985
333.14966
333.14927
333.14843
333.14649
333.14169
333.13083
333.11205
333.08196
333.15
333.15
333.14999
333.14998
333.14997
333.14992
333.14983
333.14962
333.14919
333.14827
333.14614
333.14093
333.12963
333.11091
333.0811
333.15
333.15
333.14999
333.14998
333.14996
333.14991
333.14981
333.14958
333.14911
333.1481
333.14576
333.14013
333.12845
333.10982
333.08031
333.15
333.14999
333.14999
333.14998
333.14995
333.1499
333.14978
333.14953
333.14902
333.14791
333.14535
333.13929
333.12729
333.10878
333.07957
333.15
333.14999
333.14999
333.14998
333.14995
333.14989
333.14975
333.14948
333.14892
333.14771
333.1449
333.13842
333.12616
333.1078
333.07888
333.14999
333.14999
333.14999
333.14997
333.14994
333.14987
333.14973
333.14943
333.14881
333.14749
333.14442
333.13752
333.12505
333.10686
333.07824
333.14999
333.14999
333.14998
333.14997
333.14993
333.14986
333.1497
333.14937
333.1487
333.14725
333.1439
333.13661
333.12398
333.10597
333.07764
333.14999
333.14999
333.14998
333.14996
333.14992
333.14984
333.14966
333.14931
333.14858
333.14699
333.14335
333.13568
333.12295
333.10513
333.07707
333.14999
333.14999
333.14998
333.14996
333.14991
333.14982
333.14963
333.14924
333.14844
333.1467
333.14276
333.13475
333.12195
333.10432
333.07653
333.14999
333.14999
333.14998
333.14995
333.1499
333.1498
333.14959
333.14917
333.1483
333.1464
333.14214
333.13381
333.12099
333.10354
333.07601
333.14999
333.14998
333.14997
333.14995
333.14989
333.14978
333.14955
333.14909
333.14814
333.14606
333.14149
333.13288
333.12006
333.1028
333.07552
333.14999
333.14998
333.14997
333.14994
333.14988
333.14975
333.1495
333.149
333.14797
333.1457
333.1408
333.13196
333.11917
333.1021
333.07505
333.14999
333.14998
333.14997
333.14993
333.14987
333.14973
333.14946
333.14891
333.14778
333.14531
333.1401
333.13106
333.11831
333.10141
333.0746
333.14998
333.14998
333.14996
333.14992
333.14985
333.1497
333.14941
333.14881
333.14758
333.14489
333.13938
333.13017
333.11748
333.10076
333.07417
333.14998
333.14997
333.14996
333.14992
333.14983
333.14967
333.14935
333.14871
333.14736
333.14444
333.13864
333.1293
333.11668
333.10013
333.07375
333.14998
333.14997
333.14995
333.14991
333.14982
333.14964
333.14929
333.14859
333.14712
333.14397
333.13789
333.12844
333.11591
333.09953
333.07334
333.14998
333.14997
333.14995
333.1499
333.1498
333.14961
333.14923
333.14846
333.14686
333.14346
333.13713
333.12761
333.11517
333.09894
333.07295
333.14997
333.14996
333.14994
333.14989
333.14978
333.14957
333.14916
333.14833
333.14658
333.14294
333.13638
333.1268
333.11445
333.09837
333.07257
333.14997
333.14996
333.14993
333.14987
333.14976
333.14953
333.14908
333.14818
333.14627
333.14238
333.13562
333.12601
333.11376
333.09783
333.0722
333.14997
333.14996
333.14992
333.14986
333.14973
333.14949
333.149
333.14801
333.14595
333.14181
333.13486
333.12525
333.11309
333.0973
333.07183
333.14996
333.14995
333.14992
333.14985
333.14971
333.14944
333.14891
333.14784
333.1456
333.14122
333.13412
333.1245
333.11244
333.09678
333.07148
333.14996
333.14994
333.14991
333.14983
333.14968
333.14939
333.14882
333.14764
333.14522
333.14061
333.13338
333.12377
333.11181
333.09628
333.07113
333.14995
333.14994
333.1499
333.14982
333.14965
333.14934
333.14871
333.14744
333.14482
333.13999
333.13265
333.12306
333.1112
333.09579
333.07079
333.14995
333.14993
333.14989
333.1498
333.14962
333.14928
333.1486
333.14721
333.1444
333.13937
333.13193
333.12237
333.1106
333.09532
333.07046
333.14994
333.14993
333.14988
333.14978
333.14959
333.14921
333.14847
333.14697
333.14396
333.13873
333.13122
333.1217
333.11003
333.09486
333.07013
333.14994
333.14992
333.14987
333.14976
333.14955
333.14915
333.14834
333.1467
333.1435
333.13809
333.13052
333.12105
333.10946
333.09441
333.06981
333.14993
333.14991
333.14985
333.14974
333.14951
333.14907
333.14819
333.14642
333.14302
333.13745
333.12984
333.12041
333.10892
333.09397
333.0695
333.14992
333.1499
333.14984
333.14971
333.14947
333.14899
333.14804
333.14612
333.14252
333.13681
333.12917
333.11979
333.10838
333.09354
333.06919
333.14992
333.14989
333.14982
333.14969
333.14942
333.1489
333.14786
333.1458
333.14201
333.13618
333.12851
333.11918
333.10786
333.09312
333.06889
333.14991
333.14988
333.14981
333.14966
333.14937
333.1488
333.14768
333.14545
333.14148
333.13554
333.12786
333.11859
333.10736
333.09271
333.06859
333.1499
333.14987
333.14979
333.14963
333.14931
333.1487
333.14748
333.14509
333.14095
333.13491
333.12723
333.11801
333.10686
333.0923
333.06829
333.14989
333.14986
333.14977
333.1496
333.14925
333.14859
333.14726
333.14471
333.1404
333.13428
333.12661
333.11745
333.10637
333.09191
333.068
333.14988
333.14984
333.14975
333.14956
333.14919
333.14846
333.14703
333.14431
333.13985
333.13367
333.126
333.1169
333.1059
333.09152
333.06771
333.14987
333.14983
333.14973
333.14952
333.14912
333.14833
333.14677
333.14389
333.13929
333.13305
333.12541
333.11636
333.10544
333.09114
333.06743
333.14985
333.14981
333.1497
333.14948
333.14904
333.14818
333.14651
333.14346
333.13874
333.13245
333.12482
333.11583
333.10498
333.09077
333.06715
333.14984
333.1498
333.14968
333.14943
333.14896
333.14802
333.14622
333.14302
333.13817
333.13185
333.12425
333.11531
333.10453
333.0904
333.06687
333.14983
333.14978
333.14965
333.14938
333.14887
333.14785
333.14592
333.14256
333.13761
333.13126
333.12368
333.1148
333.1041
333.09004
333.0666
333.14981
333.14976
333.14962
333.14933
333.14877
333.14767
333.14559
333.14209
333.13705
333.13068
333.12313
333.1143
333.10367
333.08968
333.06633
333.14979
333.14973
333.14958
333.14927
333.14866
333.14747
333.14526
333.14161
333.13649
333.13011
333.12259
333.11382
333.10325
333.08933
333.06606
333.14977
333.14971
333.14954
333.1492
333.14854
333.14726
333.1449
333.14113
333.13594
333.12954
333.12206
333.11334
333.10283
333.08898
333.0658
333.14975
333.14969
333.1495
333.14913
333.14841
333.14703
333.14453
333.14063
333.13538
333.12899
333.12153
333.11287
333.10242
333.08864
333.06553
333.14973
333.14966
333.14946
333.14906
333.14827
333.14678
333.14415
333.14013
333.13483
333.12844
333.12102
333.11241
333.10202
333.08831
333.06527
333.14971
333.14963
333.14941
333.14898
333.14812
333.14652
333.14375
333.13963
333.13428
333.1279
333.12051
333.11195
333.10163
333.08798
333.06501
333.14968
333.14959
333.14936
333.14888
333.14796
333.14624
333.14334
333.13913
333.13374
333.12736
333.12002
333.11151
333.10124
333.08765
333.06476
333.14965
333.14956
333.1493
333.14879
333.14779
333.14595
333.14292
333.13862
333.1332
333.12684
333.11953
333.11107
333.10086
333.08732
333.0645
333.14962
333.14952
333.14924
333.14868
333.1476
333.14564
333.14249
333.13811
333.13267
333.12632
333.11905
333.11064
333.10048
333.08701
333.06425
333.14959
333.14947
333.14917
333.14856
333.14739
333.14531
333.14205
333.1376
333.13214
333.12581
333.11857
333.11021
333.10011
333.08669
333.064
333.14955
333.14943
333.1491
333.14843
333.14718
333.14498
333.1416
333.13709
333.13162
333.1253
333.11811
333.10979
333.09974
333.08638
333.06375
333.14951
333.14937
333.14902
333.1483
333.14694
333.14462
333.14114
333.13658
333.1311
333.12481
333.11765
333.10938
333.09938
333.08607
333.06351
333.14947
333.14932
333.14893
333.14815
333.1467
333.14426
333.14068
333.13608
333.13059
333.12432
333.11719
333.10897
333.09902
333.08576
333.06326
333.14942
333.14925
333.14883
333.14798
333.14643
333.14388
333.14022
333.13557
333.13009
333.12383
333.11675
333.10857
333.09867
333.08546
333.06301
333.14936
333.14919
333.14872
333.14781
333.14616
333.14349
333.13975
333.13507
333.12959
333.12336
333.11631
333.10817
333.09832
333.08516
333.06277
333.1493
333.14911
333.14861
333.14762
333.14586
333.14309
333.13928
333.13457
333.12909
333.12289
333.11587
333.10778
333.09797
333.08486
333.06253
333.14924
333.14903
333.14848
333.14742
333.14555
333.14268
333.13881
333.13407
333.1286
333.12242
333.11545
333.1074
333.09763
333.08457
333.06229
333.14917
333.14894
333.14835
333.1472
333.14523
333.14226
333.13833
333.13358
333.12811
333.12196
333.11502
333.10701
333.0973
333.08428
333.06205
333.14909
333.14884
333.1482
333.14697
333.1449
333.14184
333.13785
333.13309
333.12763
333.12151
333.1146
333.10664
333.09696
333.08399
333.06181
333.149
333.14873
333.14804
333.14672
333.14455
333.14141
333.13738
333.1326
333.12716
333.12106
333.11419
333.10627
333.09663
333.0837
333.06157
333.14891
333.14861
333.14786
333.14646
333.14419
333.14097
333.1369
333.13211
333.12669
333.12062
333.11379
333.1059
333.09631
333.08341
333.06133
333.1488
333.14848
333.14768
333.14618
333.14381
333.14052
333.13642
333.13163
333.12622
333.12018
333.11338
333.10553
333.09598
333.08313
333.06109
333.14869
333.14834
333.14747
333.14589
333.14343
333.14008
333.13595
333.13115
333.12576
333.11975
333.11299
333.10518
333.09566
333.08285
333.06086
333.14856
333.14819
333.14726
333.14559
333.14304
333.13963
333.13547
333.13068
333.12531
333.11932
333.11259
333.10482
333.09534
333.08257
333.06062
333.14843
333.14802
333.14702
333.14526
333.14263
333.13917
333.135
333.13021
333.12485
333.1189
333.1122
333.10447
333.09503
333.08229
333.06038
333.14827
333.14784
333.14677
333.14493
333.14222
333.13871
333.13452
333.12974
333.12441
333.11848
333.11182
333.10412
333.09471
333.08202
333.06015
333.14811
333.14764
333.14651
333.14458
333.1418
333.13826
333.13405
333.12928
333.12396
333.11806
333.11144
333.10377
333.0944
333.08174
333.05992
333.14792
333.14742
333.14622
333.14422
333.14138
333.13779
333.13358
333.12882
333.12352
333.11765
333.11106
333.10343
333.0941
333.08147
333.05968
333.14773
333.14719
333.14592
333.14384
333.14095
333.13733
333.13311
333.12836
333.12309
333.11725
333.11069
333.10309
333.09379
333.0812
333.05945
333.14751
333.14694
333.14561
333.14345
333.14051
333.13687
333.13265
333.1279
333.12266
333.11685
333.11032
333.10275
333.09349
333.08092
333.05921
333.14727
333.14667
333.14527
333.14306
333.14006
333.1364
333.13218
333.12745
333.12223
333.11645
333.10995
333.10242
333.09318
333.08065
333.05898
333.14701
333.14638
333.14493
333.14265
333.13962
333.13594
333.13172
333.12701
333.12181
333.11605
333.10959
333.10208
333.09288
333.08039
333.05875
333.14674
333.14607
333.14456
333.14223
333.13916
333.13547
333.13126
333.12656
333.12139
333.11566
333.10923
333.10176
333.09258
333.08012
333.05851
333.14644
333.14574
333.14418
333.1418
333.13871
333.13501
333.1308
333.12612
333.12097
333.11528
333.10887
333.10143
333.09229
333.07985
333.05828
333.14612
333.14539
333.14379
333.14137
333.13824
333.13454
333.13034
333.12568
333.12056
333.11489
333.10851
333.1011
333.09199
333.07959
333.05805
333.14577
333.14503
333.14338
333.14092
333.13778
333.13408
333.12989
333.12525
333.12015
333.11451
333.10816
333.10078
333.0917
333.07932
333.05782
333.14541
333.14464
333.14296
333.14047
333.13731
333.13361
333.12943
333.12482
333.11974
333.11413
333.10781
333.10046
333.09141
333.07906
333.05758
333.14502
333.14423
333.14252
333.14001
333.13685
333.13314
333.12898
333.12439
333.11934
333.11375
333.10746
333.10014
333.09112
333.07879
333.05735
333.14461
333.14381
333.14207
333.13954
333.13637
333.13268
333.12853
333.12396
333.11894
333.11338
333.10712
333.09982
333.09083
333.07853
333.05712
333.14418
333.14336
333.14161
333.13907
333.1359
333.13222
333.12809
333.12354
333.11854
333.11301
333.10678
333.09951
333.09054
333.07827
333.05688
333.14373
333.1429
333.14113
333.13859
333.13542
333.13175
333.12764
333.12312
333.11815
333.11264
333.10644
333.0992
333.09025
333.07801
333.05665
333.14325
333.14242
333.14065
333.13811
333.13495
333.13129
333.1272
333.1227
333.11775
333.11228
333.1061
333.09888
333.08996
333.07775
333.05642
333.14277
333.14193
333.14016
333.13761
333.13447
333.13082
333.12676
333.12228
333.11736
333.11191
333.10576
333.09857
333.08968
333.07749
333.05618
333.14226
333.14143
333.13965
333.13712
333.13398
333.13036
333.12632
333.12187
333.11697
333.11155
333.10542
333.09826
333.08939
333.07722
333.05595
333.14174
333.14091
333.13914
333.13662
333.1335
333.1299
333.12588
333.12145
333.11659
333.11119
333.10509
333.09795
333.08911
333.07696
333.05572
333.1412
333.14038
333.13862
333.13611
333.13301
333.12944
333.12544
333.12104
333.1162
333.11083
333.10476
333.09765
333.08883
333.0767
333.05548
333.14066
333.13984
333.13809
333.13561
333.13253
333.12897
333.12501
333.12063
333.11582
333.11048
333.10443
333.09734
333.08854
333.07644
333.05524
333.1401
333.13928
333.13756
333.13509
333.13204
333.12851
333.12457
333.12022
333.11544
333.11012
333.1041
333.09704
333.08826
333.07618
333.05501
333.13953
333.13872
333.13702
333.13458
333.13155
333.12805
333.12414
333.11982
333.11506
333.10977
333.10377
333.09673
333.08798
333.07592
333.05477
333.13895
333.13816
333.13647
333.13406
333.13106
333.12759
333.1237
333.11941
333.11468
333.10942
333.10344
333.09643
333.0877
333.07566
333.05454
333.13836
333.13758
333.13592
333.13354
333.13057
333.12713
333.12327
333.11901
333.1143
333.10907
333.10312
333.09613
333.08742
333.0754
333.0543
333.13777
333.13701
333.13537
333.13301
333.13008
333.12667
333.12284
333.1186
333.11393
333.10872
333.10279
333.09582
333.08714
333.07514
333.05406
333.13718
333.13642
333.13481
333.13248
333.12958
333.1262
333.12241
333.1182
333.11355
333.10837
333.10247
333.09552
333.08686
333.07488
333.05382
333.13658
333.13584
333.13425
333.13196
333.12909
333.12574
333.12198
333.1178
333.11318
333.10802
333.10214
333.09522
333.08658
333.07462
333.05358
333.13598
333.13525
333.13368
333.13143
333.12859
333.12528
333.12155
333.1174
333.11281
333.10767
333.10182
333.09492
333.0863
333.07436
333.05334
333.13537
333.13466
333.13312
333.1309
333.1281
333.12482
333.12112
333.117
333.11243
333.10733
333.1015
333.09462
333.08602
333.0741
333.0531
333.13477
333.13406
333.13255
333.13036
333.1276
333.12436
333.12069
333.1166
333.11206
333.10698
333.10118
333.09432
333.08574
333.07384
333.05285
333.13416
333.13347
333.13199
333.12983
333.12711
333.1239
333.12026
333.1162
333.11169
333.10663
333.10085
333.09402
333.08545
333.07357
333.05261
333.13355
333.13288
333.13142
333.1293
333.12661
333.12344
333.11983
333.1158
333.11132
333.10629
333.10053
333.09372
333.08517
333.07331
333.05236
333.13295
333.13228
333.13085
333.12877
333.12611
333.12298
333.1194
333.11541
333.11095
333.10594
333.10021
333.09342
333.08489
333.07305
333.05211
333.13234
333.13169
333.13029
333.12823
333.12562
333.12251
333.11898
333.11501
333.11058
333.1056
333.09989
333.09312
333.08461
333.07278
333.05187
333.13174
333.1311
333.12972
333.1277
333.12512
333.12205
333.11855
333.11461
333.11021
333.10526
333.09957
333.09281
333.08433
333.07251
333.05162
333.13114
333.13051
333.12916
333.12717
333.12463
333.12159
333.11812
333.11422
333.10984
333.10491
333.09925
333.09251
333.08404
333.07225
333.05137
333.13054
333.12993
333.1286
333.12664
333.12413
333.12114
333.1177
333.11382
333.10947
333.10457
333.09892
333.09221
333.08376
333.07198
333.05111
333.12995
333.12935
333.12804
333.12611
333.12364
333.12068
333.11727
333.11342
333.10911
333.10422
333.0986
333.09191
333.08347
333.07171
333.05086
333.12936
333.12876
333.12748
333.12559
333.12315
333.12022
333.11684
333.11303
333.10874
333.10388
333.09828
333.09161
333.08319
333.07144
333.0506
333.12877
333.12819
333.12693
333.12506
333.12266
333.11976
333.11642
333.11263
333.10837
333.10354
333.09796
333.0913
333.0829
333.07117
333.05034
333.12818
333.12761
333.12638
333.12454
333.12217
333.11931
333.116
333.11224
333.108
333.10319
333.09763
333.091
333.08261
333.07089
333.05008
333.1276
333.12704
333.12583
333.12402
333.12168
333.11885
333.11557
333.11184
333.10763
333.10285
333.09731
333.09069
333.08233
333.07062
333.04982
333.12702
333.12648
333.12528
333.1235
333.12119
333.1184
333.11515
333.11145
333.10726
333.1025
333.09699
333.09039
333.08204
333.07034
333.04956
333.12645
333.12591
333.12474
333.12299
333.12071
333.11794
333.11473
333.11106
333.1069
333.10216
333.09666
333.09008
333.08175
333.07006
333.04929
333.12588
333.12535
333.1242
333.12247
333.12022
333.11749
333.1143
333.11066
333.10653
333.10181
333.09634
333.08977
333.08145
333.06978
333.04903
333.12532
333.1248
333.12366
333.12196
333.11974
333.11704
333.11388
333.11027
333.10616
333.10147
333.09601
333.08947
333.08116
333.0695
333.04876
333.12476
333.12425
333.12313
333.12145
333.11926
333.11659
333.11346
333.10988
333.10579
333.10112
333.09569
333.08916
333.08087
333.06922
333.04848
333.1242
333.1237
333.1226
333.12095
333.11878
333.11614
333.11304
333.10948
333.10542
333.10077
333.09536
333.08885
333.08057
333.06894
333.04821
333.12365
333.12316
333.12207
333.12044
333.11831
333.1157
333.11262
333.10909
333.10506
333.10043
333.09503
333.08854
333.08027
333.06865
333.04793
333.12311
333.12262
333.12155
333.11994
333.11784
333.11525
333.11221
333.1087
333.10469
333.10008
333.0947
333.08822
333.07997
333.06836
333.04766
333.12256
333.12208
333.12103
333.11945
333.11737
333.11481
333.11179
333.10831
333.10432
333.09973
333.09437
333.08791
333.07967
333.06807
333.04737
333.12203
333.12155
333.12052
333.11895
333.1169
333.11437
333.11137
333.10792
333.10395
333.09939
333.09405
333.0876
333.07937
333.06778
333.04709
333.12149
333.12103
333.12
333.11846
333.11643
333.11392
333.11096
333.10753
333.10358
333.09904
333.09372
333.08728
333.07907
333.06749
333.04681
333.12096
333.1205
333.1195
333.11798
333.11597
333.11349
333.11055
333.10714
333.10322
333.09869
333.09338
333.08697
333.07876
333.06719
333.04652
333.12044
333.11999
333.11899
333.11749
333.1155
333.11305
333.11013
333.10675
333.10285
333.09834
333.09305
333.08665
333.07846
333.06689
333.04623
333.11992
333.11947
333.11849
333.11701
333.11505
333.11261
333.10972
333.10636
333.10248
333.09799
333.09272
333.08633
333.07815
333.06659
333.04593
333.11941
333.11896
333.118
333.11653
333.11459
333.11218
333.10931
333.10597
333.10211
333.09764
333.09239
333.08601
333.07784
333.06629
333.04564
333.11889
333.11846
333.1175
333.11606
333.11413
333.11175
333.1089
333.10558
333.10175
333.09729
333.09205
333.08569
333.07753
333.06599
333.04534
333.11839
333.11796
333.11701
333.11558
333.11368
333.11132
333.10849
333.1052
333.10138
333.09694
333.09172
333.08537
333.07722
333.06569
333.04504
333.11789
333.11746
333.11653
333.11512
333.11323
333.11089
333.10809
333.10481
333.10101
333.09659
333.09138
333.08504
333.0769
333.06538
333.04474
333.11739
333.11697
333.11605
333.11465
333.11278
333.11046
333.10768
333.10442
333.10064
333.09624
333.09104
333.08472
333.07659
333.06507
333.04444
333.11689
333.11648
333.11557
333.11419
333.11234
333.11004
333.10728
333.10404
333.10028
333.09589
333.09071
333.08439
333.07627
333.06476
333.04413
333.1164
333.116
333.11509
333.11373
333.1119
333.10961
333.10687
333.10365
333.09991
333.09554
333.09037
333.08406
333.07595
333.06444
333.04382
333.11592
333.11551
333.11462
333.11327
333.11146
333.10919
333.10647
333.10327
333.09954
333.09519
333.09003
333.08374
333.07563
333.06413
333.04351
333.11544
333.11504
333.11416
333.11281
333.11102
333.10877
333.10607
333.10289
333.09918
333.09484
333.08969
333.08341
333.07531
333.06381
333.04319
333.11496
333.11456
333.11369
333.11236
333.11058
333.10836
333.10567
333.1025
333.09881
333.09448
333.08935
333.08308
333.07499
333.06349
333.04288
333.11449
333.11409
333.11323
333.11192
333.11015
333.10794
333.10527
333.10212
333.09844
333.09413
333.08901
333.08274
333.07466
333.06317
333.04256
333.11402
333.11363
333.11277
333.11147
333.10972
333.10752
333.10487
333.10174
333.09808
333.09378
333.08867
333.08241
333.07433
333.06285
333.04224
333.11355
333.11317
333.11232
333.11103
333.10929
333.10711
333.10448
333.10136
333.09771
333.09342
333.08833
333.08208
333.07401
333.06253
333.04192
333.11309
333.11271
333.11187
333.11059
333.10887
333.1067
333.10408
333.10098
333.09734
333.09307
333.08798
333.08174
333.07368
333.0622
333.04159
333.11263
333.11225
333.11142
333.11015
333.10844
333.10629
333.10369
333.1006
333.09698
333.09272
333.08764
333.08141
333.07335
333.06187
333.04127
333.11217
333.1118
333.11097
333.10972
333.10802
333.10588
333.10329
333.10022
333.09661
333.09236
333.08729
333.08107
333.07301
333.06154
333.04094
333.11172
333.11135
333.11053
333.10928
333.1076
333.10548
333.1029
333.09984
333.09625
333.09201
333.08695
333.08073
333.07268
333.06121
333.04061
333.11127
333.1109
333.11009
333.10885
333.10718
333.10507
333.10251
333.09947
333.09588
333.09165
333.0866
333.08039
333.07235
333.06088
333.04028
333.11082
333.11046
333.10966
333.10843
333.10677
333.10467
333.10212
333.09909
333.09552
333.0913
333.08625
333.08005
333.07201
333.06055
333.03994
333.11038
333.11002
333.10922
333.108
333.10635
333.10427
333.10173
333.09871
333.09515
333.09094
333.08591
333.07971
333.07167
333.06021
333.03961
333.10994
333.10958
333.10879
333.10758
333.10594
333.10387
333.10135
333.09834
333.09478
333.09059
333.08556
333.07937
333.07133
333.05987
333.03927
333.1095
333.10915
333.10836
333.10716
333.10553
333.10347
333.10096
333.09796
333.09442
333.09023
333.08521
333.07902
333.07099
333.05953
333.03893
333.10907
333.10872
333.10794
333.10674
333.10512
333.10307
333.10057
333.09759
333.09405
333.08987
333.08486
333.07868
333.07065
333.05919
333.03859
333.10864
333.10829
333.10752
333.10633
333.10472
333.10268
333.10019
333.09721
333.09369
333.08952
333.08451
333.07833
333.07031
333.05885
333.03825
333.10821
333.10786
333.10709
333.10591
333.10431
333.10228
333.0998
333.09684
333.09332
333.08916
333.08416
333.07798
333.06996
333.05851
333.0379
333.10779
333.10744
333.10668
333.1055
333.10391
333.10189
333.09942
333.09646
333.09296
333.0888
333.08381
333.07764
333.06962
333.05816
333.03756
333.10736
333.10702
333.10626
333.10509
333.10351
333.1015
333.09904
333.09609
333.0926
333.08845
333.08346
333.07729
333.06927
333.05782
333.03721
333.10694
333.1066
333.10585
333.10469
333.10311
333.10111
333.09866
333.09572
333.09223
333.08809
333.0831
333.07694
333.06892
333.05747
333.03686
333.10653
333.10619
333.10544
333.10428
333.10272
333.10072
333.09828
333.09535
333.09187
333.08773
333.08275
333.07659
333.06858
333.05712
333.03651
333.10611
333.10577
333.10503
333.10388
333.10232
333.10033
333.0979
333.09498
333.0915
333.08737
333.0824
333.07624
333.06823
333.05677
333.03616
333.1057
333.10536
333.10462
333.10348
333.10193
333.09995
333.09752
333.0946
333.09114
333.08701
333.08204
333.07589
333.06788
333.05642
333.03581
333.10529
333.10495
333.10422
333.10308
333.10153
333.09956
333.09714
333.09423
333.09077
333.08665
333.08169
333.07553
333.06752
333.05607
333.03546
333.10488
333.10455
333.10381
333.10268
333.10114
333.09918
333.09676
333.09386
333.09041
333.08629
333.08133
333.07518
333.06717
333.05572
333.0351
333.10447
333.10414
333.10341
333.10228
333.10075
333.09879
333.09639
333.09349
333.09004
333.08593
333.08097
333.07483
333.06682
333.05537
333.03475
333.10407
333.10374
333.10301
333.10189
333.10036
333.09841
333.09601
333.09312
333.08968
333.08557
333.08062
333.07447
333.06646
333.05501
333.03439
333.10367
333.10334
333.10261
333.1015
333.09998
333.09803
333.09564
333.09275
333.08932
333.08521
333.08026
333.07412
333.06611
333.05466
333.03404
333.10327
333.10294
333.10222
333.10111
333.09959
333.09765
333.09526
333.09239
333.08895
333.08485
333.0799
333.07376
333.06575
333.0543
333.03368
333.10287
333.10254
333.10182
333.10072
333.0992
333.09727
333.09489
333.09202
333.08859
333.08449
333.07954
333.0734
333.0654
333.05394
333.03332
333.10247
333.10215
333.10143
333.10033
333.09882
333.09689
333.09452
333.09165
333.08822
333.08413
333.07919
333.07305
333.06504
333.05358
333.03296
333.10208
333.10176
333.10104
333.09994
333.09844
333.09652
333.09414
333.09128
333.08786
333.08377
333.07883
333.07269
333.06468
333.05322
333.0326
333.10169
333.10136
333.10065
333.09955
333.09806
333.09614
333.09377
333.09091
333.0875
333.08341
333.07847
333.07233
333.06432
333.05286
333.03224
333.10129
333.10097
333.10026
333.09917
333.09768
333.09576
333.0934
333.09055
333.08713
333.08305
333.07811
333.07197
333.06396
333.0525
333.03187
333.1009
333.10059
333.09988
333.09879
333.0973
333.09539
333.09303
333.09018
333.08677
333.08269
333.07775
333.07161
333.0636
333.05214
333.03151
333.10052
333.1002
333.09949
333.09841
333.09692
333.09501
333.09266
333.08981
333.0864
333.08232
333.07738
333.07125
333.06324
333.05178
333.03115
333.10013
333.09981
333.09911
333.09802
333.09654
333.09464
333.09229
333.08944
333.08604
333.08196
333.07702
333.07089
333.06288
333.05142
333.03078
333.09974
333.09943
333.09873
333.09764
333.09616
333.09427
333.09192
333.08908
333.08567
333.0816
333.07666
333.07053
333.06252
333.05106
333.03042
333.09936
333.09905
333.09835
333.09727
333.09579
333.09389
333.09155
333.08871
333.08531
333.08124
333.0763
333.07016
333.06216
333.05069
333.03005
333.09898
333.09866
333.09797
333.09689
333.09541
333.09352
333.09118
333.08834
333.08495
333.08087
333.07594
333.0698
333.06179
333.05033
333.02968
333.0986
333.09828
333.09759
333.09651
333.09504
333.09315
333.09081
333.08798
333.08458
333.08051
333.07557
333.06944
333.06143
333.04996
333.02932
333.09822
333.0979
333.09721
333.09614
333.09467
333.09278
333.09044
333.08761
333.08422
333.08015
333.07521
333.06908
333.06106
333.0496
333.02895
333.09784
333.09753
333.09683
333.09576
333.09429
333.09241
333.09007
333.08725
333.08385
333.07978
333.07485
333.06871
333.0607
333.04923
333.02858
333.09746
333.09715
333.09646
333.09539
333.09392
333.09204
333.08971
333.08688
333.08349
333.07942
333.07448
333.06835
333.06034
333.04886
333.02821
333.09708
333.09677
333.09608
333.09501
333.09355
333.09167
333.08934
333.08651
333.08312
333.07905
333.07412
333.06798
333.05997
333.0485
333.02784
333.09671
333.0964
333.09571
333.09464
333.09318
333.0913
333.08897
333.08615
333.08276
333.07869
333.07376
333.06762
333.0596
333.04813
333.02747
333.09633
333.09602
333.09533
333.09427
333.09281
333.09093
333.08861
333.08578
333.08239
333.07833
333.07339