/*--------------------------------*- C++ -*----------------------------------*\
| =========                 |                                                 |
| \\      /  F ield         | OpenFOAM: The Open Source CFD Toolbox           |
|  \\    /   O peration     | Version:  2506                                  |
|   \\  /    A nd           | Website:  www.openfoam.com                      |
|    \\/     M anipulation  |                                                 |
\*---------------------------------------------------------------------------*/
FoamFile
{
    version     2.0;
    format      ascii;
    arch        "LSB;label=32;scalar=64";
    class       volVectorField;
    location    "3000/water";
    object      U;
}
// * * * * * * * * * * * * * * * * * * * * * * * * * * * * * * * * * * * * * //

dimensions      [0 1 -1 0 0 0 0];

internalField   nonuniform List<vector> 
6000
(
(0.25028648 -3.4193492e-05 1.6797287e-18)
(0.25028875 -7.4648812e-05 -3.9200098e-18)
(0.25029344 -0.00011804414 -6.2011311e-19)
(0.25030059 -0.00016540046 -5.1961944e-20)
(0.25031046 -0.00021487336 1.2943916e-19)
(0.25032332 -0.00026685039 1.8883984e-19)
(0.25033948 -0.00032192175 1.6523152e-19)
(0.25035939 -0.00038078672 -4.0089822e-21)
(0.25038356 -0.00044434477 -3.6755218e-19)
(0.25041254 -0.00051362452 -2.1459117e-20)
(0.25044587 -0.0005867756 2.3294208e-20)
(0.25047643 -0.00065822056 2.4086319e-19)
(0.25046276 -0.00078466513 -1.7370689e-19)
(0.25013031 -0.0015987837 -1.482454e-19)
(0.24584996 0.0019968142 -1.9566572e-19)
(0.25104035 -3.7261304e-05 1.5304001e-18)
(0.25104514 -8.9895979e-05 -1.7446351e-18)
(0.2510558 -0.00014352114 -4.3861868e-19)
(0.25107219 -0.00020025424 -1.2735031e-19)
(0.2510947 -0.0002571822 1.1892204e-18)
(0.25112368 -0.00031440571 5.4196559e-19)
(0.25115965 -0.00037188242 4.1929562e-19)
(0.25120324 -0.00042947839 -1.9976536e-19)
(0.2512551 -0.00048709454 -6.6638307e-19)
(0.25131538 -0.00054561245 -2.3498299e-19)
(0.25138039 -0.00060405492 5.4521149e-20)
(0.25142587 -0.00063755821 3.085918e-19)
(0.25133175 -0.00059164843 -2.1996493e-19)
(0.25037931 -0.0014370973 -2.1422567e-19)
(0.24194277 0.00099520264 -2.3516917e-19)
(0.25195051 -3.6589028e-05 -1.7581967e-18)
(0.25195563 -9.0250613e-05 3.3688167e-18)
(0.25196731 -0.00014313025 1.2269459e-18)
(0.25198528 -0.00019912655 -1.7647184e-18)
(0.25200977 -0.00025508716 4.5155119e-19)
(0.25204101 -0.0003112558 -2.2179101e-19)
(0.25207932 -0.00036762123 -6.1439621e-19)
(0.25212505 -0.00042413945 -1.0732103e-18)
(0.25217823 -0.00048056787 -1.0396198e-18)
(0.25223708 -0.0005377572 -4.5462537e-19)
(0.25229114 -0.00060007155 -4.8982339e-19)
(0.25229033 -0.00065419843 -4.4131749e-19)
(0.25200573 -0.00054460881 -4.6407043e-19)
(0.25014357 -0.0012195308 -3.6748642e-19)
(0.23758495 0.00043820543 -3.7134595e-19)
(0.25283353 -3.7446604e-05 2.0038128e-18)
(0.25283867 -9.3611088e-05 -6.1096486e-19)
(0.25285018 -0.00014906892 3.036093e-19)
(0.25286783 -0.00020791578 -1.5063004e-18)
(0.25289182 -0.00026672308 1.5407496e-19)
(0.25292238 -0.00032582165 -2.9236759e-19)
(0.25295982 -0.00038519269 -7.8629005e-19)
(0.25300432 -0.00044485276 -9.6673199e-19)
(0.25305525 -0.00050441426 -4.7286885e-19)
(0.25310809 -0.00056332944 1.1034382e-19)
(0.25314261 -0.00062607506 -6.7324954e-19)
(0.25307635 -0.00069910336 -5.310339e-19)
(0.25255493 -0.0005845712 -3.2128961e-19)
(0.24963188 -0.001063787 -2.5283925e-19)
(0.23320285 0.0001058672 -3.3935454e-19)
(0.25372643 -3.8342944e-05 9.81354e-18)
(0.2537317 -9.6368691e-05 1.2810611e-18)
(0.25374347 -0.00015372841 1.6828699e-18)
(0.25376156 -0.00021453144 7.6068498e-19)
(0.25378616 -0.00027516439 5.0432442e-19)
(0.25381749 -0.00033599427 1.9550014e-19)
(0.25385581 -0.00039694563 -4.0539259e-21)
(0.25390101 -0.00045805575 1.2180496e-19)
(0.25395133 -0.00051907431 1.9712003e-19)
(0.25399821 -0.00057855465 1.3194616e-19)
(0.25400834 -0.00063773998 -6.3905107e-20)
(0.25386022 -0.0007177221 -2.7978045e-20)
(0.25305737 -0.00062191547 8.3347665e-24)
(0.24895451 -0.00093835859 -9.3842782e-21)
(0.22897365 -8.3792337e-05 -1.0150158e-19)
(0.25464474 -3.866162e-05 5.1470176e-20)
(0.25465014 -9.7320119e-05 1.0042268e-19)
(0.2546622 -0.00015516462 1.4962949e-18)
(0.25468073 -0.00021648308 1.5596072e-18)
(0.2547059 -0.00027758564 -3.1397748e-19)
(0.25473792 -0.000338881 2.4244804e-19)
(0.25477689 -0.00040025681 -1.6635688e-20)
(0.25482222 -0.000461728 5.2774581e-20)
(0.25487049 -0.00052322808 -1.2978228e-19)
(0.2549078 -0.000583188 9.1835806e-20)
(0.25488519 -0.00063896641 -3.3315909e-20)
(0.25463685 -0.00071821651 -9.2402132e-20)
(0.25350729 -0.0006469875 -1.2199168e-19)
(0.248129 -0.00083894719 -1.0496169e-19)
(0.2249409 -0.00018589273 -2.2005469e-20)
(0.25557031 -3.8595293e-05 -3.0369811e-18)
(0.25557581 -9.7309346e-05 -2.7229479e-18)
(0.25558805 -0.00015511983 -1.3466235e-18)
(0.25560682 -0.00021642526 1.481744e-18)
(0.2556323 -0.00027749359 -1.0651706e-18)
(0.25566463 -0.00033876345 2.2748024e-19)
(0.25570371 -0.00040009734 1.1323201e-19)
(0.25574825 -0.00046144626 -1.7597369e-19)
(0.25579256 -0.00052279714 -1.1214657e-19)
(0.25581623 -0.0005828814 1.5661085e-19)
(0.25575267 -0.00063600478 5.8003763e-20)
(0.25538743 -0.00071016267 -2.7899086e-20)
(0.25388915 -0.00066107344 -2.3200263e-20)
(0.24716598 -0.00076077854 -1.3727306e-19)
(0.22112141 -0.00023459296 -8.1729369e-20)
(0.25649134 -3.8297106e-05 2.8800067e-18)
(0.25649692 -9.6712128e-05 1.9184197e-18)
(0.25650928 -0.00015419069 1.0163112e-18)
(0.25652824 -0.00021515485 7.5969455e-19)
(0.25655393 -0.00027585718 -5.3678975e-19)
(0.25658641 -0.0003367553 -1.3361857e-19)
(0.25662528 -0.00039769653 -1.6616382e-20)
(0.2566683 -0.00045856441 5.5499125e-21)
(0.25670691 -0.00051927104 1.3939521e-19)
(0.25671305 -0.00057893859 -3.1308945e-19)
(0.25660095 -0.00063003278 2.5638122e-19)
(0.25610359 -0.00069722485 7.0907647e-20)
(0.25419746 -0.0006651972 -1.1654108e-19)
(0.24608527 -0.00069788903 -7.274116e-20)
(0.21752738 -0.00025081848 -5.859822e-20)
(0.25740382 -3.7852859e-05 -1.5811687e-18)
(0.25740947 -9.5689494e-05 -1.6251205e-18)
(0.25742193 -0.00015257331 9.9180425e-19)
(0.25744104 -0.00021291358 6.3584896e-19)
(0.25746687 -0.00027297291 4.1133545e-19)
(0.25749936 -0.0003332193 2.2842055e-19)
(0.2575377 -0.00039348924 3.673092e-20)
(0.2575784 -0.00045361301 1.1889589e-19)
(0.25760945 -0.00051335259 4.5984652e-19)
(0.25759421 -0.00057212213 4.0850104e-19)
(0.25742635 -0.00062159363 1.6062294e-19)
(0.25678237 -0.00068144217 1.2957007e-19)
(0.25443121 -0.00066103685 -1.0817455e-19)
(0.24490935 -0.00064561644 -3.6904561e-20)
(0.21416513 -0.00024776584 -5.382726e-20)
(0.25830515 -3.7308638e-05 1.713772e-18)
(0.25831084 -9.4372769e-05 -1.8591276e-18)
(0.25832339 -0.00015047649 -2.2044749e-19)
(0.2583426 -0.00020999612 6.538851e-20)
(0.25836849 -0.00026922145 -8.7925919e-19)
(0.25840083 -0.00032862339 2.0603101e-19)
(0.25843826 -0.00038802594 1.8094595e-19)
(0.25847573 -0.00044722018 2.185498e-19)
(0.25849727 -0.00050579279 2.1233015e-19)
(0.25845683 -0.00056328987 4.6326407e-19)
(0.25822634 -0.00061131675 1.7131188e-19)
(0.25742154 -0.00066417743 6.6860814e-20)
(0.2545896 -0.00065044234 -4.2877307e-20)
(0.24365871 -0.00060064453 -7.4773509e-20)
(0.21103455 -0.00023378679 -1.420792e-19)
(0.259193 -3.669388e-05 4.351936e-18)
(0.25919873 -9.285746e-05 4.7963786e-18)
(0.25921134 -0.00014806165 -8.0705384e-19)
(0.25923061 -0.00020663289 -2.5089514e-20)
(0.25925648 -0.0002648995 5.2800522e-19)
(0.25928848 -0.00032332972 2.0709295e-19)
(0.25932457 -0.00038173097 3.0929758e-19)
(0.25935785 -0.00043986308 2.6827041e-19)
(0.25936788 -0.00049714489 1.8913565e-19)
(0.25929853 -0.00055310431 -2.1839065e-19)
(0.2589988 -0.00059970361 4.2918988e-20)
(0.25801896 -0.00064623362 9.0356192e-20)
(0.25467145 -0.00063499349 -4.2183224e-20)
(0.24235144 -0.00056062195 -7.623862e-20)
(0.20813123 -0.0002141088 -6.4835525e-20)
(0.26006576 -3.6034055e-05 4.8789731e-18)
(0.26007152 -9.1214285e-05 4.208482e-18)
(0.26008417 -0.00014544281 -8.1967929e-19)
(0.26010346 -0.00020298347 4.132328e-19)
(0.26012923 -0.00026021093 7.319582e-19)
(0.2601607 -0.0003175869 3.0673931e-19)
(0.26019497 -0.00037489796 2.9447096e-19)
(0.26022303 -0.0004318747 2.2558377e-19)
(0.26021952 -0.00048779066 3.8719506e-19)
(0.26011767 -0.00054204301 -4.7141831e-20)
(0.25974224 -0.00058714002 1.0420842e-19)
(0.25857279 -0.00062806077 1.694727e-19)
(0.25467557 -0.00061594005 8.4483944e-20)
(0.24100379 -0.00052390611 1.8536887e-20)
(0.20544863 -0.00019196316 -1.5436196e-20)
(0.2609225 -3.5349633e-05 5.9108403e-18)
(0.26092828 -8.9497286e-05 4.7832872e-18)
(0.26094096 -0.00014270541 -4.3463746e-19)
(0.26096023 -0.00019916671 1.4589248e-19)
(0.2609858 -0.00025530722 9.520278e-19)
(0.2610165 -0.00031157921 5.3918712e-19)
(0.26104844 -0.00036774517 4.9346098e-19)
(0.2610702 -0.00042350433 3.2961201e-19)
(0.26105114 -0.00047801113 1.908677e-19)
(0.26091327 -0.00053046086 -1.0527302e-19)
(0.2604557 -0.00057393662 1.2420237e-19)
(0.2590814 -0.00060990566 1.4123076e-19)
(0.2546009 -0.00059424331 9.0213959e-20)
(0.23963056 -0.00048937354 5.0221868e-20)
(0.20297926 -0.00016931833 -6.1898749e-20)
(0.26176274 -3.4655538e-05 1.3575387e-18)
(0.26176854 -8.7746856e-05 2.8582464e-18)
(0.26178122 -0.00013991377 -7.6530707e-19)
(0.26180042 -0.00019527247 1.323251e-19)
(0.26182568 -0.00025030306 1.3097064e-18)
(0.26185536 -0.00030544608 8.450387e-19)
(0.26188442 -0.00036043768 6.411208e-19)
(0.26189878 -0.00041494196 6.0187657e-19)
(0.26186213 -0.00046801762 -4.6525792e-20)
(0.2616848 -0.00051862213 -4.9498489e-20)
(0.26113855 -0.00056034346 6.5088906e-20)
(0.25954316 -0.00059189152 9.3101417e-20)
(0.25444651 -0.0005706321 2.2629077e-20)
(0.23824529 -0.00045627776 1.0445371e-20)
(0.20071509 -0.00014735259 4.7748509e-20)
(0.26258633 -3.396306e-05 -2.7877529e-19)
(0.26259213 -8.5993781e-05 -8.3615129e-20)
(0.26260479 -0.00013711719 2.7042826e-18)
(0.26262388 -0.00019136968 6.1336028e-19)
(0.2626487 -0.00024528655 -1.0162151e-18)
(0.26267708 -0.00029929459 2.3343791e-19)
(0.26270267 -0.00035310243 3.4487755e-19)
(0.26270848 -0.00040633486 6.3156364e-19)
(0.26265224 -0.00045797299 -4.8090617e-21)
(0.26243199 -0.00050672605 1.645436e-19)
(0.26179026 -0.00054656345 1.0272599e-19)
(0.25995633 -0.0005740675 -6.1446238e-21)
(0.25421177 -0.00054566294 6.6109231e-20)
(0.23686046 -0.00042415213 5.183787e-21)
(0.19864765 -0.0001267576 -1.3531831e-20)
(0.26339335 -3.32814e-05 3.513775e-18)
(0.26339915 -8.4262741e-05 4.74519e-18)
(0.26341177 -0.0001343551 2.8524635e-18)
(0.26343068 -0.0001875135 7.2001368e-19)
(0.26345493 -0.00024032822 5.4055105e-19)
(0.26348171 -0.00029321054 1.3865898e-19)
(0.2635032 -0.00034584107 2.4471262e-19)
(0.2634993 -0.00039780175 4.4689419e-19)
(0.26342146 -0.00044800829 3.3251527e-19)
(0.26315482 -0.00049492779 1.1612302e-20)
(0.26241041 -0.00053276478 1.6470363e-20)
(0.26031893 -0.00055643964 1.040023e-19)
(0.2538966 -0.000519773 2.4634561e-20)
(0.23548766 -0.00039274464 1.0184264e-20)
(0.19676807 -0.00010792878 -1.2736166e-19)
(0.26418413 -3.2618312e-05 3.6737438e-18)
(0.26418991 -8.2574226e-05 3.3239114e-18)
(0.26420246 -0.00013166021 1.571497e-18)
(0.26422112 -0.0001837496 9.7949465e-19)
(0.26424465 -0.00023548648 6.836422e-19)
(0.2642695 -0.00028726512 4.9069354e-19)
(0.26428624 -0.00033873796 3.8498224e-19)
(0.26427145 -0.00038944152 1.0768937e-19)
(0.26416998 -0.0004382328 2.3547678e-19)
(0.26385341 -0.00048335173 -1.4923339e-19)
(0.26299854 -0.00051908846 4.2517149e-20)
(0.26062878 -0.00053898815 9.4768374e-20)
(0.25350187 -0.00049331965 1.0571204e-20)
(0.2341376 -0.00036197184 -3.412529e-20)
(0.19506692 -9.1079356e-05 2.7057325e-20)
(0.26495914 -3.1980325e-05 3.851123e-18)
(0.2649649 -8.0945389e-05 3.575773e-18)
(0.26497734 -0.00012905989 1.7731563e-18)
(0.26499568 -0.00018011622 1.4601694e-18)
(0.26501831 -0.00023081031 8.8623003e-19)
(0.26504088 -0.00028151806 7.0603806e-19)
(0.2650522 -0.00033186392 4.7412546e-19)
(0.2650253 -0.00038133727 4.0776575e-20)
(0.26489816 -0.00042873842 1.1982868e-19)
(0.26452796 -0.00047209828 6.2946762e-20)
(0.26355413 -0.00050565096 6.963746e-21)
(0.2608835 -0.00052167636 -4.8856034e-21)
(0.25302971 -0.00046660631 6.4998705e-20)
(0.23282016 -0.00033188327 -1.4011036e-19)
(0.19353413 -7.6303786e-05 3.6053232e-20)
(0.26571903 -3.1372765e-05 4.9809796e-18)
(0.26572475 -7.9390278e-05 3.6189643e-18)
(0.26573705 -0.00012657658 4.0337469e-19)
(0.26575498 -0.00017664472 1.01573e-18)
(0.26577653 -0.00022633987 1.2153525e-18)
(0.26579644 -0.0002760185 9.0142394e-19)
(0.26580163 -0.0003252772 4.1670679e-19)
(0.26576141 -0.00037355728 1.7454593e-19)
(0.26560652 -0.00041960061 3.5971711e-19)
(0.26517878 -0.00046124612 2.4512705e-19)
(0.26407657 -0.00049254343 9.7179259e-20)
(0.26108058 -0.00050445572 4.8282667e-20)
(0.25248384 -0.00043989699 4.928867e-20)
(0.23154421 -0.00030262987 -9.7651098e-20)
(0.19215888 -6.3609731e-05 -1.3364293e-19)
(0.26646455 -3.0799673e-05 7.5196988e-18)
(0.26647021 -7.7919711e-05 1.5313447e-18)
(0.26648233 -0.00012422759 3.5656797e-18)
(0.26649975 -0.0001733593 2.2793686e-18)
(0.26652002 -0.00022210618 -3.0728898e-19)
(0.26653688 -0.0002708044 1.4734488e-18)
(0.26653522 -0.00031902283 1.0954845e-18)
(0.26648042 -0.00036615421 1.0124125e-18)
(0.26629564 -0.00041087723 6.3699098e-19)
(0.26580617 -0.00045085191 -1.6241981e-20)
(0.26456508 -0.00047982866 5.5595595e-19)
(0.26121753 -0.00048726982 3.9596046e-19)
(0.25186982 -0.00041342264 2.2888823e-19)
(0.23031742 -0.00027443217 2.3193086e-19)
(0.1909297 -5.2932834e-05 1.6764997e-19)
(0.26719653 -3.0263687e-05 4.75922e-18)
(0.26720212 -7.6541023e-05 1.164243e-18)
(0.26721401 -0.00012202465 2.6519277e-18)
(0.26723083 -0.00017027641 2.2789887e-18)
(0.2672496 -0.00021813033 7.7639517e-19)
(0.26726299 -0.00026590165 1.0417746e-18)
(0.26725373 -0.0003131315 1.123908e-18)
(0.26718309 -0.00035916374 9.4814859e-19)
(0.26696618 -0.00040260692 4.3920913e-19)
(0.26641044 -0.00044094906 1.3479736e-19)
(0.26501868 -0.00046753759 4.7564973e-19)
(0.26129202 -0.00047005901 3.4893638e-19)
(0.25119506 -0.00038738325 2.3633308e-19)
(0.2291461 -0.00024754677 2.1692243e-19)
(0.18983455 -4.4145099e-05 2.5317978e-19)
(0.26791589 -2.9765992e-05 -3.5186713e-18)
(0.26792138 -7.5257932e-05 -2.0367777e-19)
(0.26793299 -0.00011997376 1.0250687e-18)
(0.26794908 -0.00016740448 1.2696705e-18)
(0.26796613 -0.00021442312 1.9637168e-18)
(0.26797562 -0.00026132351 4.3855661e-19)
(0.267958 -0.00030761887 5.5599971e-19)
(0.26787018 -0.00035260382 3.046366e-19)
(0.2676188 -0.00039480805 -7.4189551e-20)
(0.2669918 -0.00043154706 6.5857616e-21)
(0.26543617 -0.00045566687 5.5591434e-20)
(0.2613021 -0.00045276643 1.2354723e-19)
(0.2504687 -0.00036194908 6.6086057e-20)
(0.22803501 -0.00022223217 6.2003645e-20)
(0.18886112 -3.7064086e-05 6.3142721e-20)
(0.26862352 -2.9306383e-05 2.4868863e-18)
(0.2686289 -7.4070661e-05 3.9849281e-19)
(0.26864017 -0.00011807532 3.0799137e-18)
(0.26865542 -0.00016474412 2.5197295e-18)
(0.26867049 -0.00021098533 2.137372e-18)
(0.26867563 -0.000257071 1.6627475e-18)
(0.26864885 -0.00030248606 1.3040803e-18)
(0.26854251 -0.00034647515 1.2516522e-18)
(0.26825414 -0.00038747924 3.882181e-19)
(0.26755035 -0.00042263245 -3.8763427e-19)
(0.2658161 -0.00044417905 2.419577e-19)
(0.26124652 -0.00043534493 3.9183375e-19)
(0.24970133 -0.00033726333 3.6858692e-19)
(0.22698727 -0.00019871676 3.3749988e-19)
(0.18799711 -3.1466398e-05 2.6052224e-19)
(0.26932033 -2.888346e-05 1.8133278e-18)
(0.26932558 -7.2976355e-05 -1.0911187e-18)
(0.26933645 -0.00011632481 6.2696501e-19)
(0.26935072 -0.00016228909 1.6413859e-18)
(0.26936357 -0.0002078089 1.6732188e-18)
(0.26936389 -0.00025313433 1.5943262e-18)
(0.26932713 -0.0002977213 1.3976719e-18)
(0.26920083 -0.00034076321 9.931628e-19)
(0.2688728 -0.00038060158 7.3664741e-19)
(0.26808605 -0.00041417146 2.0296174e-19)
(0.26615679 -0.00043300583 2.1029786e-19)
(0.26112496 -0.00041776402 3.3358816e-19)
(0.24890441 -0.00031344658 3.7282571e-19)
(0.22600436 -0.00017717261 3.8083582e-19)
(0.18723056 -2.7105586e-05 3.0949012e-19)
(0.27000719 -2.849491e-05 3.4351523e-18)
(0.27001228 -7.1969743e-05 3.1874895e-18)
(0.27002267 -0.00011471384 3.1523956e-18)
(0.27003583 -0.00016002771 2.3856196e-18)
(0.27004618 -0.00020487885 1.0852363e-18)
(0.27004119 -0.00024949516 1.6869366e-18)
(0.2699936 -0.00029330262 1.4425182e-18)
(0.26984584 -0.00033544136 7.1121124e-19)
(0.26947524 -0.00037414208 7.7198925e-19)
(0.2685986 -0.00040611399 3.4505718e-19)
(0.26645635 -0.00042205446 3.6416892e-19)
(0.2609383 -0.00040001524 3.9772174e-19)
(0.24808975 -0.00029060213 3.8193521e-19)
(0.22508629 -0.00015769827 5.5279454e-19)
(0.18655015 -2.3732129e-05 3.0790822e-19)
(0.27068489 -2.8137825e-05 1.0711911e-17)
(0.2706898 -7.1043905e-05 5.6243258e-18)
(0.27069965 -0.00011323138 4.6937438e-18)
(0.27071153 -0.00015794462 3.5454849e-18)
(0.2707191 -0.00020217544 1.262211e-18)
(0.27070829 -0.00024612933 2.2422403e-18)
(0.27064898 -0.00028920108 1.815396e-18)
(0.27047818 -0.00033047455 1.2524405e-18)
(0.27006181 -0.00036805783 1.0112653e-18)
(0.26908753 -0.00039839812 1.5084004e-19)
(0.26671278 -0.00041121648 6.3772006e-19)
(0.26068881 -0.00038211515 6.96811e-19)
(0.24726882 -0.00026882041 8.1908591e-19)
(0.22423175 -0.00014031231 6.895453e-19)
(0.18594537 -2.1112147e-05 4.0675156e-19)
(0.27135418 -2.7809011e-05 3.8578663e-19)
(0.27135887 -7.019104e-05 3.5795119e-18)
(0.2713681 -0.00011186497 1.8019109e-18)
(0.27137855 -0.00015602247 1.6269874e-18)
(0.27138303 -0.00019967637 2.1412523e-18)
(0.27136587 -0.00024300948 1.1609772e-18)
(0.27129391 -0.00028538386 1.0717662e-18)
(0.27109836 -0.000325823 6.8498886e-19)
(0.27063272 -0.00036230005 7.1331806e-19)
(0.26955206 -0.00039095432 1.9794863e-19)
(0.26692403 -0.00040037784 2.1905759e-19)
(0.26038022 -0.00036410564 3.7210718e-19)
(0.24645221 -0.00024818088 5.4120985e-19)
(0.22343841 -0.00012495718 1.5070024e-19)
(0.18540672 -1.904183e-05 2.7387049e-19)
(0.27201571 -2.7505236e-05 5.7883047e-19)
(0.27202015 -6.9403099e-05 1.9474148e-18)
(0.27202866 -0.00011060176 2.5655846e-18)
(0.27203751 -0.00015424331 2.293314e-18)
(0.2720386 -0.00019735858 2.5019875e-18)
(0.27201452 -0.00024010733 1.0336104e-18)
(0.27192892 -0.00028181693 1.1487769e-18)
(0.2717068 -0.00032144525 9.0275411e-19)
(0.27118802 -0.00035681747 5.8505524e-19)
(0.2699912 -0.00038370884 1.9372016e-19)
(0.26708822 -0.000389429 2.0991715e-19)
(0.26001771 -0.00034605163 2.9854218e-19)
(0.24564917 -0.00022875086 2.8969631e-19)
(0.22270325 -0.00011151162 2.7513709e-19)
(0.18492573 -1.7355843e-05 2.6754023e-19)
(0.27267005 -2.7223403e-05 1.4035402e-18)
(0.27267421 -6.8672269e-05 9.6665429e-19)
(0.27268192 -0.00010942927 1.5947288e-18)
(0.27268898 -0.00015258973 2.1473634e-18)
(0.27268634 -0.00019519966 1.7985855e-18)
(0.27265476 -0.00023739527 1.0097238e-18)
(0.27255447 -0.00027846699 8.8055787e-19)
(0.2723038 -0.00031730047 1.0292732e-18)
(0.27172757 -0.00035155884 4.3549515e-19)
(0.27040369 -0.00037658611 6.7548601e-19)
(0.26720375 -0.00037827411 2.4176934e-19)
(0.25960771 -0.00032803713 3.3331022e-19)
(0.24486735 -0.00021058184 2.0524578e-19)
(0.22202277 -9.9808139e-05 3.2084252e-19)
(0.18449494 -1.5929484e-05 2.4297481e-19)
(0.27331772 -2.6960666e-05 2.772514e-18)
(0.27332155 -6.7991274e-05 3.7108335e-18)
(0.27332837 -0.00010833587 3.1627287e-18)
(0.27333345 -0.00015104547 1.7694224e-18)
(0.27332673 -0.00019317869 7.1670043e-19)
(0.27328702 -0.00023484751 1.2214449e-18)
(0.27317093 -0.0002753027 8.0369476e-19)
(0.27288957 -0.00031334989 1.039245e-18)
(0.27225107 -0.00034647442 5.7624103e-19)
(0.27078808 -0.00036951039 7.2974585e-19)
(0.26726952 -0.00036683813 4.1773083e-19)
(0.25915765 -0.0003101602 4.2381081e-19)
(0.24411266 -0.00019370463 2.7255467e-19)
(0.22139331 -8.9652403e-05 1.663264e-19)
(0.1841079 -1.4675689e-05 1.9588247e-19)
(0.27395916 -2.6714475e-05 8.1258076e-18)
(0.27396262 -6.7353542e-05 4.2397068e-18)
(0.27396843 -0.00010731104 4.9359634e-18)
(0.27397134 -0.00014959583 3.3146502e-18)
(0.27396016 -0.00019127671 1.7923265e-18)
(0.27391168 -0.00023244055 2.3003494e-18)
(0.2737786 -0.00027229533 1.6529588e-18)
(0.27346419 -0.00030955757 1.6492635e-18)
(0.27275806 -0.00034151676 1.0152542e-18)
(0.27114274 -0.00036240704 3.0095821e-19)
(0.26728512 -0.00035507155 6.5290209e-19)
(0.25867552 -0.00029252748 6.9274094e-19)
(0.24338933 -0.00017812521 7.9785367e-19)
(0.22081116 -8.0841192e-05 5.861543e-19)
(0.18375901 -1.3538667e-05 4.2016621e-19)
(0.27459475 -2.648259e-05 5.2656258e-19)
(0.2745978 -6.675326e-05 4.5616171e-18)
(0.27460249 -0.0001063455 2.5318891e-18)
(0.274603 -0.0001482278 2.3935076e-18)
(0.27458699 -0.00018947691 3.0120026e-18)
(0.27452902 -0.00023015345 1.5347818e-18)
(0.27437767 -0.00026941895 1.1073159e-18)
(0.27402763 -0.00030589064 8.1884405e-19)
(0.27324789 -0.00033664079 6.4288969e-19)
(0.27146593 -0.0003552038 2.1470884e-19)
(0.26725094 -0.00034295249 2.5487349e-19)
(0.25816956 -0.00027524859 4.6902651e-19)
(0.24270004 -0.00016382254 5.7183897e-19)
(0.22027275 -7.317711e-05 3.4092847e-19)
(0.18344349 -1.2486088e-05 2.8029096e-19)
(0.27522481 -2.6263072e-05 2.8438284e-18)
(0.27522741 -6.6185368e-05 4.1377376e-18)
(0.27523087 -0.00010543114 3.0076536e-18)
(0.27522875 -0.00014693 2.8072303e-18)
(0.27520748 -0.00018776456 2.7763912e-18)
(0.2751393 -0.00022796774 1.6123424e-18)
(0.27496829 -0.00026665041 1.2192025e-18)
(0.27457978 -0.00030231921 8.2522551e-19)
(0.27371976 -0.0003318036 7.6769044e-19)
(0.27175586 -0.00034783257 3.9387495e-19)
(0.26716832 -0.00033048644 3.9697347e-19)
(0.25764777 -0.0002584306 5.2257149e-19)
(0.24204621 -0.0001507494 5.3292988e-19)
(0.21977469 -6.6478885e-05 3.3954563e-19)
(0.18315725 -1.1501421e-05 2.1936402e-19)
(0.27584964 -2.6054261e-05 3.9676714e-18)
(0.27585173 -6.5645512e-05 2.1596045e-18)
(0.27585383 -0.00010456099 1.8386413e-18)
(0.27584885 -0.00014569263 2.2627277e-18)
(0.27582189 -0.00018612688 2.5043972e-18)
(0.2757427 -0.00022586725 1.61714e-18)
(0.27555053 -0.00026396905 1.3784059e-18)
(0.27512041 -0.00029881615 7.2405547e-19)
(0.27417268 -0.00032696406 5.7441034e-19)
(0.27201082 -0.00034023144 8.3537432e-19)
(0.26703956 -0.00031770398 4.7189921e-19)
(0.25711762 -0.00024217267 4.9176402e-19)
(0.24142819 -0.00013883591 4.8045056e-19)
(0.21931381 -6.0587304e-05 4.7166853e-19)
(0.18289682 -1.057747e-05 2.5029557e-19)
(0.27646948 -2.5854749e-05 2.3790077e-18)
(0.27647102 -6.5129981e-05 4.775869e-18)
(0.27647162 -0.00010372909 2.9367596e-18)
(0.27646352 -0.00014450731 1.7493668e-18)
(0.2764304 -0.00018455289 1.4915368e-18)
(0.27633935 -0.00022383791 1.5106478e-18)
(0.27612438 -0.00026135649 1.370538e-18)
(0.27564919 -0.00029535665 5.7948222e-19)
(0.27460555 -0.00032208226 4.6064861e-19)
(0.27222923 -0.0003323472 7.5464285e-19)
(0.26686787 -0.00030465719 5.7581846e-19)
(0.25658579 -0.00022656125 6.2509735e-19)
(0.2408456 -0.00012799526 5.0059065e-19)
(0.21888719 -5.5367366e-05 6.1535666e-19)
(0.18265925 -9.7115797e-06 3.0010776e-19)
(0.27708455 -2.5663344e-05 6.996955e-18)
(0.27708548 -6.4635631e-05 5.3178866e-18)
(0.27708444 -0.0001029304 5.305176e-18)
(0.27707295 -0.00014336686 3.788144e-18)
(0.27703318 -0.00018303314 1.7017678e-18)
(0.27692935 -0.00022186743 2.4569967e-18)
(0.2766898 -0.00025879623 1.9857789e-18)
(0.27616569 -0.00029191777 1.520543e-18)
(0.27501711 -0.00031711916 1.1476779e-18)
(0.27240981 -0.00032413774 4.8327379e-19)
(0.26665728 -0.00029141517 8.3746975e-19)
(0.256058 -0.00021166603 1.0374974e-18)
(0.24029748 -0.00011813047 9.5179442e-19)
(0.21849214 -5.0707643e-05 8.657871e-19)
(0.18244204 -8.9025332e-06 5.0540413e-19)
(0.27769504 -2.5479044e-05 1.7119744e-18)
(0.27769529 -6.4159806e-05 3.9838949e-18)
(0.27769247 -0.00010216064 3.174233e-18)
(0.27767729 -0.00014226521 2.5222616e-18)
(0.27763035 -0.0001815595 2.2639625e-18)
(0.27751275 -0.00021994503 1.4382145e-18)
(0.27724666 -0.00025627339 1.1777676e-18)
(0.27666938 -0.00028847796 1.0333435e-18)
(0.275406 -0.00031203634 7.292225e-19)
(0.27255164 -0.0003155742 4.5847847e-19)
(0.26641246 -0.00027805925 3.5259695e-19)
(0.25553894 -0.0001975371 5.744251e-19)
(0.23978254 -0.00010914112 3.3108736e-19)
(0.21812621 -4.6517861e-05 3.7245421e-19)
(0.18224308 -8.1488544e-06 3.6843712e-19)
(0.27830111 -2.5301005e-05 3.0026122e-18)
(0.27830062 -6.3700269e-05 3.1810361e-18)
(0.27829586 -0.0001014162 2.785659e-18)
(0.2782767 -0.00014119716 2.3810939e-18)
(0.278222 -0.00018012493 2.4979802e-18)
(0.27808956 -0.00021806116 1.4672313e-18)
(0.2777948 -0.00025377436 1.2132312e-18)
(0.27715962 -0.0002850166 1.119215e-18)
(0.27577079 -0.00030679609 7.7409166e-19)
(0.27265429 -0.00030664248 5.154064e-19)
(0.26613848 -0.00026467813 5.1307646e-19)
(0.2550323 -0.00018420368 4.2579801e-19)
(0.23929925 -0.00010092916 3.0600346e-19)
(0.21778713 -4.2725645e-05 3.8270821e-19)
(0.18206056 -7.4481429e-06 3.5850951e-19)
(0.27890291 -2.5128516e-05 2.4934018e-18)
(0.27890162 -6.3255127e-05 1.2778102e-18)
(0.27889474 -0.00010069401 2.072293e-18)
(0.27887126 -0.00014015826 2.535904e-18)
(0.27880821 -0.00017872332 2.3886211e-18)
(0.27865976 -0.00021620724 1.6758334e-18)
(0.27833397 -0.00025128651 1.4327603e-18)
(0.27763569 -0.00028151345 1.1796981e-18)
(0.27611001 -0.00030136189 9.0322077e-19)
(0.2727179 -0.00029734386 9.3018009e-19)
(0.26584062 -0.00025136317 6.0854642e-19)
(0.25454084 -0.00017167439 4.771158e-19)
(0.23884602 -9.3403159e-05 5.0240568e-19)
(0.21747286 -3.9273087e-05 3.2620923e-19)
(0.18189296 -6.7970328e-06 3.4620244e-19)
(0.27950056 -2.4960972e-05 -3.3538009e-18)
(0.2794984 -6.2822774e-05 3.4741755e-18)
(0.27948922 -9.9991431e-05 2.1579561e-18)
(0.27946108 -0.00013914466 1.5480209e-18)
(0.279389 -0.00017734922 2.1330436e-18)
(0.27922329 -0.00021437542 7.950291e-19)
(0.27886389 -0.00024879793 6.4259041e-19)
(0.27809674 -0.00027794828 3.8011491e-19)
(0.27642222 -0.00029569921 3.419103e-19)
(0.27274323 -0.00028769474 8.2051595e-19)
(0.2655241 -0.00023820406 1.2019151e-19)
(0.25406651 -0.00015993912 1.250099e-19)
(0.23842119 -8.6481051e-05 -3.3909049e-21)
(0.21718151 -3.6113612e-05 9.2666593e-20)
(0.18173897 -6.1914736e-06 2.0212196e-19)
(0.28009418 -2.4797856e-05 5.1796439e-19)
(0.28009107 -6.2401833e-05 4.0394126e-18)
(0.28007941 -9.9306213e-05 3.3573924e-18)
(0.28004623 -0.00013815299 1.5725836e-18)
(0.27996442 -0.00017599777 2.3678945e-18)
(0.27978006 -0.00021255837 8.7742967e-19)
(0.2793842 -0.00024629715 5.3131183e-19)
(0.27854186 -0.00027430051 3.91303e-19)
(0.27670605 -0.00028977675 3.4345043e-19)
(0.27273166 -0.0002777256 7.3877098e-19)
(0.26519392 -0.00022528491 2.070084e-19)
(0.25361059 -0.00014897206 -5.1901582e-20)
(0.23802316 -8.009123e-05 -7.0830892e-20)
(0.21691137 -3.3209338e-05 4.5400958e-20)
(0.18159747 -5.6270975e-06 1.3756969e-19)
(0.28068388 -2.4638722e-05 2.8970365e-18)
(0.28067974 -6.1991114e-05 4.8773169e-18)
(0.28066539 -9.8636369e-05 3.570344e-18)
(0.28062676 -0.00013718022 1.8321707e-18)
(0.28053445 -0.00017466447 1.9652003e-18)
(0.28032993 -0.00021074911 1.3541745e-18)
(0.27989449 -0.00024377295 6.2964368e-19)
(0.27897002 -0.0002705489 3.0578859e-19)
(0.27696025 -0.00028356785 5.419534e-19)
(0.27268518 -0.00026747915 6.6941994e-19)
(0.26485469 -0.00021268092 3.177575e-19)
(0.25317379 -0.00013873548 -1.6479537e-19)
(0.23765034 -7.4172514e-05 -4.5134985e-20)
(0.2166609 -3.0529029e-05 -6.8898168e-20)
(0.18146749 -5.0995651e-06 1.1244926e-19)
(0.28126974 -2.4483172e-05 4.7227841e-18)
(0.28126449 -6.1589566e-05 6.5258727e-18)
(0.28124722 -9.7980136e-05 3.7957019e-18)
(0.28120271 -0.00013622364 1.3642919e-18)
(0.28109907 -0.00017334514 8.0718062e-19)
(0.28087275 -0.00020894082 6.1158596e-19)
(0.28039427 -0.00024121406 -9.3320119e-20)
(0.27938014 -0.00026667151 -2.9687876e-19)
(0.27718382 -0.00027705191 -4.1992297e-20)
(0.27260633 -0.00025700811 1.3011961e-20)
(0.26451052 -0.00020045586 -1.6004088e-19)
(0.25275643 -0.00012918378 -4.6093726e-19)
(0.23730122 -6.8673273e-05 -3.5067283e-19)
(0.21642866 -2.8046558e-05 -3.083418e-19)
(0.18134818 -4.604811e-06 -8.2642745e-20)
(0.28185185 -2.4330856e-05 3.7305427e-18)
(0.28184539 -6.119625e-05 6.1570986e-18)
(0.28182498 -9.7335907e-05 4.0025633e-18)
(0.28177412 -0.00013528067 1.66261e-18)
(0.28165823 -0.00017203573 5.9492216e-19)
(0.2814083 -0.00020712676 3.1689975e-19)
(0.28088299 -0.00023860899 -3.5819691e-20)
(0.27977106 -0.0002626457 -5.0880406e-20)
(0.27737601 -0.00027021574 -1.5585203e-19)
(0.27249806 -0.00024637257 -2.1622416e-19)
(0.26416497 -0.0001886604 -2.8749841e-19)
(0.2523585 -0.00012026722 -3.20955e-19)
(0.23697438 -6.3550124e-05 -1.7271067e-19)
(0.21621337 -2.5739815e-05 -2.7066839e-19)
(0.18123881 -4.1392033e-06 -1.115809e-19)
(0.28243029 -2.4181448e-05 2.7559538e-18)
(0.28242252 -6.0810308e-05 5.0719348e-18)
(0.28239871 -9.6702198e-05 3.1714956e-18)
(0.28234099 -0.00013434892 2.7823355e-18)
(0.28221186 -0.00017073227 1.3983651e-18)
(0.28193636 -0.00020530013 8.7805311e-19)
(0.28136003 -0.00023594579 6.5934688e-19)
(0.2801416 -0.00025844846 5.2123043e-19)
(0.27753642 -0.00026305461 4.7172226e-19)
(0.27236366 -0.00023563725 -9.6936372e-20)
(0.26382105 -0.00017733135 1.2288046e-19)
(0.25197976 -0.0001119352 2.3650682e-19)
(0.23666845 -5.8766489e-05 2.2433053e-19)
(0.21601387 -2.3589919e-05 1.1670183e-19)
(0.1811387 -3.6995975e-06 7.9177739e-20)
(0.28300512 -2.4034648e-05 3.369964e-18)
(0.28299594 -6.0430938e-05 8.9944078e-19)
(0.28296845 -9.6077596e-05 2.3600892e-18)
(0.28290332 -0.00013342601 1.9934238e-18)
(0.28275987 -0.00016943078 1.7155462e-18)
(0.28245663 -0.00020345398 9.1923016e-19)
(0.28182471 -0.00023321186 7.5418384e-19)
(0.28049057 -0.0002540569 5.7539854e-19)
(0.27766504 -0.00025557284 4.5401926e-19)
(0.27220658 -0.00022486879 3.4023704e-19)
(0.26348123 -0.00016649191 1.4390137e-19)
(0.25161982 -0.00010413863 3.6940139e-19)
(0.23638216 -5.4291232e-05 1.9597857e-19)
(0.21582908 -2.1580661e-05 4.3026833e-20)
(0.18104728 -3.2833429e-06 5.0093371e-20)
(0.2835764 -2.3890167e-05 4.6769609e-18)
(0.28356569 -6.0057379e-05 2.8952106e-18)
(0.28353424 -9.5460739e-05 2.536936e-18)
(0.2834611 -0.00013250962 1.5309699e-18)
(0.28330215 -0.00016812719 1.9825914e-18)
(0.28296879 -0.00020158114 1.1207803e-18)