/*--------------------------------*- C++ -*----------------------------------*\
| =========                 |                                                 |
| \\      /  F ield         | OpenFOAM: The Open Source CFD Toolbox           |
|  \\    /   O peration     | Version:  2506                                  |
|   \\  /    A nd           | Website:  www.openfoam.com                      |
|    \\/     M anipulation  |                                                 |
\*---------------------------------------------------------------------------*/
FoamFile
{
    version     2.0;
    format      ascii;
    arch        "LSB;label=32;scalar=64";
    class       volScalarField;
    location    "5000/water";
    object      alphat;
}
// * * * * * * * * * * * * * * * * * * * * * * * * * * * * * * * * * * * * * //

dimensions      [1 -1 -1 0 0 0 0];

internalField   nonuniform List<scalar> 
1000
(
0.038690245
0.038689577
0.038688046
0.038679677
0.038634252
0.038395956
0.037190881
0.031863289
0.019099263
0.016301307
0.036437656
0.036436968
0.036430539
0.036397696
0.036243742
0.035561449
0.032798677
0.024476369
0.014644266
0.017654592
0.034756095
0.034752688
0.034735392
0.034658264
0.034338316
0.033096043
0.028914324
0.020078521
0.014287386
0.017671293
0.033455039
0.033447371
0.03341324
0.03327659
0.032760727
0.03094008
0.025769801
0.0182718
0.015951811
0.017301527
0.032418332
0.032405139
0.032350678
0.032150525
0.031437425
0.029070333
0.023555963
0.018635566
0.018861331
0.016925707
0.031571667
0.031552637
0.031479597
0.031226166
0.030328128
0.027485284
0.022555101
0.020803656
0.022278855
0.01666625
0.030866455
0.030843488
0.030761497
0.030477953
0.02940213
0.026292359
0.023062062
0.024244001
0.025541391
0.016525214
0.030270851
0.030249446
0.030178157
0.029894502
0.028644401
0.025787649
0.025138652
0.028280507
0.028304932
0.016463213
0.029764733
0.029755539
0.029725672
0.029468675
0.02810726
0.026357416
0.028508486
0.032334433
0.030519128
0.016442688
0.029337062
0.02935753
0.029409779
0.029196804
0.027981244
0.028237591
0.032681302
0.036080562
0.032267511
0.016440706
0.02898475
0.029060636
0.029241351
0.029099663
0.028583677
0.031375196
0.037164699
0.039413543
0.033659115
0.016446401
0.02871254
0.028878692
0.029233144
0.029270406
0.030215384
0.035478647
0.04160869
0.042341507
0.034787703
0.016455606
0.028533627
0.028833061
0.029403345
0.029912938
0.033002823
0.040161525
0.045828107
0.044910517
0.035723363
0.016467069
0.028470714
0.028950924
0.02979558
0.031303775
0.036852288
0.045075646
0.049751635
0.047172311
0.036515382
0.016480524
0.028557106
0.029264013
0.03051601
0.033675879
0.041512225
0.049977294
0.053365846
0.049174047
0.037197813
0.016495911
0.028837274
0.02981233
0.031757475
0.037114166
0.046676543
0.054726243
0.056681861
0.050955532
0.037793736
0.016513134
0.029366661
0.030660623
0.033764537
0.041531224
0.052071205
0.059252997
0.059719645
0.052547836
0.038312948
0.016531936
0.030212365
0.031928188
0.036741784
0.046714584
0.057495318
0.063527288
0.062500716
0.053971536
0.038771741
0.016552023
0.031460531
0.033808154
0.040769055
0.052403138
0.062820372
0.067538748
0.065043791
0.055249902
0.039180764
0.016573202
0.033237408
0.036537719
0.045775328
0.058353566
0.067969771
0.071286925
0.067367479
0.056402394
0.039547821
0.016595306
0.035735479
0.040316784
0.051571065
0.0643748
0.072897567
0.074772672
0.069492275
0.057443844
0.039878902
0.016618162
0.039206744
0.045225531
0.057909703
0.070330586
0.077571654
0.078005858
0.071434997
0.058386099
0.040178314
0.016641578
0.043889248
0.051190898
0.064545756
0.076123796
0.081973672
0.080997237
0.0732091
0.059238322
0.04044908
0.016665353
0.049893292
0.058009906
0.071267831
0.081682816
0.086094541
0.083755062
0.074824996
0.060007317
0.040693248
0.01668928
0.057120672
0.065404323
0.077905456
0.086957145
0.089927466
0.086284789
0.076290066
0.060697839
0.040912102
0.016713148
0.065267321
0.073075995
0.084332027
0.09190934
0.093464249
0.088588657
0.07760874
0.061312793
0.041106272
0.016736741
0.073904839
0.080753019
0.090453166
0.096506488
0.096694898
0.090665718
0.078782665
0.061853373
0.041275773
0.016759824
0.082590348
0.088205949
0.096192778
0.10071988
0.099608411
0.092512544
0.079811186
0.062319319
0.041420074
0.016782142
0.09095158
0.095253111
0.10148991
0.10452611
0.10219461
0.094124707
0.080692322
0.06270945
0.041538294
0.016803413
0.098724648
0.10176132
0.10629881
0.10790894
0.10444655
0.095498825
0.081424203
0.063022508
0.041629565
0.016823347
0.10575293
0.10764397
0.11059008
0.11086109
0.1063628
0.09663466
0.082006636
0.063258116
0.041693444
0.016841664
0.1119662
0.11285639
0.11435123
0.11338526
0.10794891
0.097536677
0.082442362
0.063417576
0.041730259
0.016858127
0.11735541
0.11738895
0.11758589
0.11549401
0.10921776
0.098214689
0.082737707
0.063504295
0.041741271
0.016872559
0.12195078
0.12125893
0.12031182
0.11720854
0.11018888
0.098683604
0.082902555
0.0635238
0.041728654
0.016884861
0.12580561
0.12450256
0.12255788
0.11855698
0.11088702
0.098962504
0.082949801
0.063483423
0.041695332
0.016895013
0.12898513
0.12716811
0.12436093
0.11957224
0.11134058
0.099073406
0.082894521
0.063391808
0.041644745
0.016903069
0.1315593
0.12931044
0.12576277
0.12029012
0.11157993
0.099039983
0.082753059
0.063258355
0.041580603
0.016909148
0.13359842
0.13098695
0.12680762
0.12074757
0.11163606
0.09888639
0.082542148
0.06309267
0.041506661
0.016913416
0.13517035
0.13225479
0.12754011
0.12098133
0.1115394
0.098636278
0.082278143
0.062904084
0.041426508
0.016916077
0.13633903
0.13316903
0.12800378
0.12102683
0.11131895
0.098312004
0.081976393
0.062701249
0.041343403
0.016917349
0.13716358
0.13378139
0.12823995
0.12091743
0.11100161
0.097934054
0.081650774
0.06249184
0.041260157
0.01691746
0.13769791
0.13413961
0.12828704
0.12068382
0.11061175
0.097520669
0.081313402
0.06228238
0.041179069
0.016916627
0.13799056
0.13428703
0.12818011
0.12035378
0.11017097
0.097087663
0.080974499
0.062078181
0.041101918
0.016915054
0.13808483
0.13426254
0.1279507
0.11995195
0.10969807
0.096648403
0.080642407
0.061883371
0.041029984
0.016912926
0.13801896
0.13410062
0.12762677
0.11949993
0.10920903
0.096213848
0.080323581
0.061700718
0.04096303
0.01691039
0.13782643
0.13383154
0.12723281
0.11901628
0.10871719
0.095792664
0.080022621
0.061531281
0.040902192
0.016907573
0.13753635
0.13348162
0.12678999
0.11851674
0.10823334
0.095391293
0.079742063
0.061377143
0.04084794
0.0169046
0.13717379
0.13307353
0.1263164
0.11801432
0.10776583
0.09501388
0.079485024
0.061239101
0.040800438
0.016901574
0.13676013
0.13262655
0.12582718
0.11751944
0.10732059
0.094664703
0.07925295
0.06111737
0.0407596
0.01689858
0.13631341
0.13215681
0.12533458
0.11704004
0.10690331
0.094346171
0.079046377
0.061011708
0.040725155
0.016895683
0.13584853
0.13167745
0.12484867
0.11658346
0.10651769
0.094059498
0.078865136
0.060921514
0.040696701
0.016892929
0.13537777
0.13119963
0.12437821
0.11615499
0.10616604
0.093804963
0.078708502
0.060845919
0.040673758
0.016890354
0.13491154
0.13073268
0.12392997
0.11575832
0.10584953
0.093582088
0.078575324
0.060783871
0.040655799
0.01688798
0.1344583
0.13028399
0.123509
0.11539586
0.10556835
0.093389798
0.078464141
0.060734203
0.040642282
0.01688582
0.13402474
0.12985927
0.1231189
0.11506883
0.10532193
0.093226557
0.078373277
0.060695688
0.040632666
0.016883881
0.13361596
0.1294627
0.12276202
0.11477757
0.1051091
0.093090494
0.078300925
0.060667084
0.040626426
0.016882161
0.13323569
0.12909721
0.12243962
0.11452158
0.10492817
0.092979507
0.078245217
0.060647165
0.040623064
0.016880657
0.13288644
0.12876456
0.12215206
0.11429979
0.10477715
0.092891356
0.078204279
0.060634753
0.04062212
0.016879359
0.13256966
0.12846558
0.12189895
0.1141106
0.10465375
0.092823735
0.078176273
0.060628732
0.040623165
0.016878257
0.13228593
0.1282003
0.12167927
0.11395205
0.10455555
0.092774328
0.078159428
0.060628057
0.040625811
0.016877338
0.13203507
0.12796808
0.12149153
0.1138219
0.10448004
0.092740864
0.078152063
0.060631765
0.040629709
0.016876586
0.13181631
0.12776773
0.12133385
0.11371773
0.10442469
0.092721154
0.078152611
0.060638978
0.040634548
0.016875988
0.13162835
0.12759765
0.12120411
0.11363704
0.10438703
0.092713128
0.07815963
0.060648913
0.040640057
0.016875526
0.13146956
0.12745593
0.12109999
0.1135773
0.10436466
0.092714857
0.078171815
0.060660879
0.040646005
0.016875187
0.13133801
0.12734045
0.12101907
0.11353601
0.10435533
0.092724567
0.078187998
0.060674274
0.040652196
0.016874955
0.13123157
0.12724893
0.1209589
0.11351074
0.10435691
0.092740645
0.078207143
0.060688576
0.040658466
0.016874815
0.131148
0.12717901
0.12091705
0.11349917
0.10436743
0.092761631
0.078228335
0.060703336
0.040664677
0.016874756
0.13108498
0.12712832
0.12089113
0.11349911
0.10438509
0.092786218
0.078250774
0.060718169
0.04067071
0.016874762
0.13104017
0.12709449
0.12087885
0.11350849
0.10440823
0.092813252
0.07827377
0.060732753
0.040676471
0.016874823
0.13101128
0.12707524
0.12087803
0.11352545
0.10443541
0.092841734
0.078296745
0.060746828
0.040681885
0.016874928
0.13099609
0.12706838
0.12088665
0.11354828
0.10446533
0.09287082
0.078319234
0.060760198
0.040686906
0.016875065
0.1309925
0.12707186
0.12090287
0.11357548
0.10449691
0.092899819
0.078340871
0.060772714
0.040691462
0.016875227
0.13099855
0.1270838
0.12092502
0.11360573
0.10452922
0.092928162
0.078361364
0.060784236
0.040695538
0.016875404
0.13101244
0.12710249
0.12095162
0.11363788
0.10456148
0.092955388
0.078380467
0.060794704
0.040699158
0.016875592
0.13103253
0.12712637
0.12098135
0.11367095
0.10459304
0.092981103
0.078398024
0.060804116
0.040702341
0.016875783
0.13105733
0.12715404
0.12101305
0.11370408
0.10462333
0.09300502
0.078413969
0.060812467
0.040705105
0.016875975
0.13108548
0.12718424
0.12104568
0.11373653
0.10465191
0.093026982
0.078428256
0.060819772
0.040707466
0.016876163
0.1311158
0.12721589
0.12107836
0.11376771
0.10467851
0.093046876
0.078440878
0.060826063
0.040709446
0.016876345
0.13114723
0.12724801
0.12111038
0.11379721
0.10470293
0.093064658
0.078451873
0.060831392
0.040711071
0.016876516
0.1311789
0.12727986
0.12114122
0.11382474
0.10472506
0.09308035
0.078461313
0.060835829
0.040712375
0.016876676
0.13121013
0.12731084
0.12117046
0.11385011
0.10474489
0.093094022
0.0784693
0.060839455
0.040713396
0.016876824
0.13124038
0.12734051
0.12119782
0.1138732
0.10476244
0.093105778
0.078475951
0.060842357
0.040714173
0.016876958
0.13126923
0.12736851
0.12122311
0.11389398
0.10477778
0.093115737
0.078481382
0.060844613
0.040714739
0.01687708
0.13129636
0.1273946
0.12124618
0.11391243
0.104791
0.09312402
0.078485701
0.060846295
0.04071512
0.01687719
0.13132152
0.12741856
0.12126696
0.11392859
0.10480219
0.093130746
0.07848901
0.060847462
0.040715336
0.016877286
0.13134454
0.12744028
0.1212854
0.11394252
0.10481146
0.093136038
0.078491406
0.06084817
0.040715403
0.016877369
0.13136529
0.12745969
0.12130153
0.1139543
0.10481896
0.093140028
0.078492989
0.060848476
0.040715341
0.016877439
0.13138375
0.12747678
0.12131541
0.11396408
0.10482484
0.093142866
0.078493872
0.060848444
0.040715172
0.016877497
0.13139994
0.12749162
0.12132718
0.11397202
0.10482928
0.093144712
0.078494172
0.060848144
0.040714925
0.016877544
0.13141396
0.12750434
0.12133699
0.11397832
0.10483249
0.093145732
0.07849401
0.060847646
0.040714628
0.016877582
0.13142595
0.12751509
0.12134503
0.11398317
0.10483464
0.093146079
0.078493493
0.060847012
0.040714304
0.016877611
0.13143606
0.12752404
0.12135148
0.11398677
0.1048359
0.093145886
0.078492708
0.060846289
0.040713972
0.016877633
0.13144447
0.12753136
0.12135653
0.11398928
0.10483641
0.093145255
0.078491721
0.060845506
0.040713639
0.016877649
0.13145129
0.12753719
0.1213603
0.11399083
0.10483629
0.093144266
0.078490576
0.06084468
0.040713304
0.01687766
0.13145666
0.12754165
0.12136293
0.11399154
0.10483563
0.093142984
0.078489309
0.060843823
0.040712968
0.016877666
0.13146068
0.12754486
0.12136454
0.11399152
0.10483452
0.09314147
0.078487952
0.060842949
0.040712631
0.016877668
0.13146348
0.12754696
0.12136526
0.11399088
0.10483306
0.093139791
0.078486548
0.060842075
0.040712298
0.016877665
0.13146518
0.12754806
0.12136522
0.11398975
0.10483133
0.093138017
0.078485139
0.060841225
0.04071198
0.016877658
0.13146592
0.12754833
0.12136456
0.11398825
0.10482944
0.09313622
0.078483771
0.060840425
0.040711688
0.01687765
0.13146588
0.12754791
0.12136342
0.1139865
0.10482747
0.093134452
0.078482475
0.060839689
0.040711426
0.01687764
)
;

boundaryField
{
    water_inlet
    {
        type            calculated;
        value           uniform 0.041850807;
    }
    water_outlet
    {
        type            calculated;
        value           nonuniform List<scalar> 10(0.13146588 0.12754791 0.12136342 0.1139865 0.10482747 0.093134452 0.078482475 0.060839689 0.040711426 0.01687764);
    }
    water_wedge1
    {
        type            wedge;
    }
    water_wedge2
    {
        type            wedge;
    }
    water_to_rock
    {
        type            compressible::alphatWallFunction;
        value           nonuniform List<scalar> 
100
(
0.0020384971
0.0022594581
0.0022621707
0.0022020355
0.0021407406
0.002098318
0.0020752203
0.0020650581
0.0020616931
0.0020613679
0.0020623019
0.0020638115
0.0020656907
0.002067896
0.0020704178
0.0020732403
0.0020763211
0.0020796124
0.0020830818
0.0020867023
0.0020904449
0.0020942782
0.0020981693
0.002102085
0.0021059911
0.0021098518
0.0021136286
0.0021172787
0.0021207562
0.0021240139
0.0021270071
0.0021296973
0.002132056
0.0021340668
0.0021357261
0.0021370425
0.0021380354
0.0021387323
0.0021391665
0.0021393742
0.0021393921
0.002139256
0.0021389991
0.0021386514
0.0021382372
0.0021377771
0.0021372914
0.0021367972
0.0021363082
0.0021358348
0.0021353851
0.0021349644
0.0021345765
0.0021342237
0.0021339069
0.0021336259
0.0021333801
0.0021331681
0.002132988
0.0021328377
0.0021327149
0.002132617
0.0021325416
0.0021324861
0.0021324482
0.0021324255
0.0021324157
0.0021324168
0.0021324267
0.0021324438
0.0021324663
0.0021324928
0.0021325219
0.0021325525
0.0021325839
0.0021326153
0.002132646
0.0021326755
0.0021327035
0.0021327297
0.0021327539
0.0021327761
0.0021327961
0.0021328138
0.0021328295
0.0021328429
0.0021328543
0.0021328638
0.0021328715
0.0021328777
0.0021328826
0.0021328862
0.0021328888
0.0021328904
0.0021328912
0.0021328912
0.0021328906
0.0021328895
0.002132888
0.0021328864
)
;
    }
}


// ************************************************************************* //
