/*--------------------------------*- C++ -*----------------------------------*\
| =========                 |                                                 |
| \\      /  F ield         | OpenFOAM: The Open Source CFD Toolbox           |
|  \\    /   O peration     | Version:  2506                                  |
|   \\  /    A nd           | Website:  www.openfoam.com                      |
|    \\/     M anipulation  |                                                 |
\*---------------------------------------------------------------------------*/
FoamFile
{
    version     2.0;
    format      ascii;
    arch        "LSB;label=32;scalar=64";
    class       volScalarField;
    location    "5000/water";
    object      k;
}
// * * * * * * * * * * * * * * * * * * * * * * * * * * * * * * * * * * * * * //

dimensions      [0 2 -2 0 0 0 0];

internalField   nonuniform List<scalar> 
1000
(
0.00017657855
0.00017657518
0.00017657131
0.00017655365
0.00017648098
0.00017625478
0.00017589507
0.00017764177
0.00020514192
0.00048657967
0.00013915035
0.00013915817
0.00013914641
0.00013908743
0.00013888206
0.0001383736
0.00013797747
0.00014325066
0.00019616758
0.00057072179
0.00011343696
0.00011343683
0.00011340783
0.00011329561
0.00011298241
0.0001124902
0.00011342551
0.00012641409
0.00020548434
0.00057180213
9.4956345e-05
9.4947216e-05
9.4898274e-05
9.4747989e-05
9.446117e-05
9.4591044e-05
9.8882253e-05
0.00012463443
0.00023169719
0.00054812305
8.1180941e-05
8.1164581e-05
8.1102165e-05
8.0967049e-05
8.0960039e-05
8.2611544e-05
9.2929502e-05
0.00013695634
0.00027128319
0.00052456948
7.0599818e-05
7.0579371e-05
7.0523473e-05
7.0504812e-05
7.1168264e-05
7.5593929e-05
9.529153e-05
0.00016203261
0.00031585945
0.00050861033
6.2267978e-05
6.2250533e-05
6.2239523e-05
6.2499651e-05
6.4399528e-05
7.3304097e-05
0.00010610205
0.00019613561
0.00035649801
0.00050003843
5.5571435e-05
5.5570246e-05
5.5667659e-05
5.6450705e-05
6.0389073e-05
7.597157e-05
0.00012498775
0.00023351965
0.00038871337
0.00049629324
5.0098705e-05
5.0135845e-05
5.0440299e-05
5.2103049e-05
5.9190668e-05
8.3984486e-05
0.00015029936
0.0002689616
0.00041246903
0.00049505658
4.5567681e-05
4.5677869e-05
4.6337526e-05
4.9391705e-05
6.10961e-05
9.7486899e-05
0.00017920257
0.00029964212
0.0004296401
0.00049493719
4.1782808e-05
4.2019039e-05
4.3252174e-05
4.841624e-05
6.6518185e-05
0.00011597928
0.00020865664
0.00032501672
0.00044222965
0.0004952802
3.860968e-05
3.9051438e-05
4.1174547e-05
4.942271e-05
7.580832e-05
0.00013819001
0.0002364199
0.00034571953
0.00045177418
0.00049583488
3.5960355e-05
3.6725366e-05
4.0189369e-05
5.2766897e-05
8.9027767e-05
0.0001623719
0.00026138214
0.00036268755
0.00045931481
0.00049652591
3.3785878e-05
3.5046468e-05
4.0478115e-05
5.8837592e-05
0.00010576996
0.00018682836
0.00028330046
0.00037677341
0.00046551944
0.0004973375
3.207434e-05
3.4079147e-05
4.2315874e-05
6.7933525e-05
0.00012516087
0.00021031444
0.00030238171
0.00038864951
0.00047080803
0.00049826651
3.0853758e-05
3.3954467e-05
4.6048043e-05
8.0118048e-05
0.00014606398
0.00023213661
0.00031898748
0.00039881757
0.00047543923
0.00049930747
3.0199542e-05
3.4878922e-05
5.2034251e-05
9.511571e-05
0.00016736988
0.00025203104
0.00033348891
0.00040763799
0.0004795221
0.00050044509
3.0245994e-05
3.7136086e-05
6.0556214e-05
0.00011231925
0.00018821097
0.00026998849
0.00034621459
0.00041534853
0.00048317102
0.00050166204
3.1200008e-05
4.1069035e-05
7.1707617e-05
0.00013091725
0.00020802788
0.00028611979
0.00035742602
0.00042213401
0.0004864916
0.00050294668
3.3351738e-05
4.7031363e-05
8.5310864e-05
0.00015007629
0.00022652153
0.00030057583
0.00036733072
0.00042814967
0.00048955792
0.00050428923
3.7070619e-05
5.5301964e-05
0.00010090965
0.00016908801
0.00024356806
0.00031350315
0.00037608874
0.00043353306
0.00049241578
0.00050567922
4.2767689e-05
6.5979472e-05
0.00011785038
0.00018743159
0.00025913439
0.00032501634
0.00038386987
0.00043837762
0.00049509128
0.00050710513
5.0805624e-05
7.8899323e-05
0.0001354124
0.00020475575
0.00027320792
0.00033526233
0.0003907976
0.00044274825
0.00049759822
0.00050855489
6.1362246e-05
9.3622574e-05
0.0001529262
0.00022080493
0.00028583317
0.00034436389
0.00039696124
0.00044668843
0.0004999417
0.00051001615
7.4302839e-05
0.00010951478
0.00016980459
0.0002354216
0.00029707709
0.00035241079
0.00040242209
0.00045022464
0.00050212011
0.00051147621
8.9141917e-05
0.00012582749
0.00018559425
0.00024853426
0.00030699042
0.00035946394
0.00040721813
0.00045336918
0.0005041259
0.00051292166
0.00010508366
0.00014184743
0.00019999762
0.00026010126
0.00031560796
0.00036556035
0.00041136822
0.00045612242
0.00050594612
0.00051433788
0.00012123655
0.00015699523
0.0002128276
0.00027010522
0.00032295407
0.00037071989
0.00041487704
0.00045847565
0.0005075634
0.00051570873
0.00013679809
0.00017085356
0.00022398838
0.00027855471
0.00032905175
0.00037495415
0.00041774169
0.00046041522
0.0005089581
0.00051701666
0.00015116418
0.00018316294
0.00023346025
0.0002854877
0.00033393281
0.00037827635
0.00041995943
0.00046192809
0.00051011164
0.00051824364
0.00016395743
0.00019380009
0.00024128549
0.00029097323
0.0003376461
0.00038071043
0.00042153549
0.00046300765
0.0005110104
0.00051937243
0.00017500098
0.00020274951
0.0002475542
0.00029510929
0.00034026183
0.00038229735
0.00042248904
0.00046365857
0.00051164903
0.00052038816
0.00018426962
0.00021007437
0.00025239043
0.00029801733
0.00034187143
0.00038309744
0.00042285624
0.00046389948
0.00051203232
0.00052127965
0.00019183986
0.00021589031
0.00025593937
0.0002998348
0.00034258382
0.00038318906
0.00042269001
0.00046376313
0.00051217534
0.00052204031
0.00019784871
0.00022034387
0.0002583565
0.00030070723
0.00034251947
0.00038266447
0.00042205721
0.00046329433
0.00051210212
0.00052266847
0.00020246363
0.00022359592
0.00025979902
0.00030078116
0.00034180395
0.00038162434
0.0004210342
0.00046254664
0.00051184339
0.00052316715
0.00020586231
0.00022580992
0.00026041949
0.0003001984
0.00034056197
0.00038017203
0.00041970187
0.00046157832
0.0005114339
0.00052354345
0.00020822
0.00022714408
0.00026036152
0.00029909196
0.00033891255
0.00037840854
0.00041814091
0.00046044844
0.00051090972
0.00052380768
0.00020970201
0.00022774641
0.00025975709
0.00029758332
0.00033696551
0.00037642846
0.00041642784
0.00045921355
0.00051030591
0.00052397234
0.00021045982
0.00022775202
0.00025872501
0.00029578091
0.00033481911
0.00037431705
0.000414632
0.00045792501
0.00050965463
0.00052405109
0.00021062932
0.00022728191
0.0002573704
0.00029377949
0.00033255894
0.00037214853
0.00041281362
0.00045662727
0.00050898389
0.00052405788
0.00021033044
0.00022644263
0.00025578474
0.00029166024
0.00033025748
0.00036998529
0.00041102291
0.000455357
0.00050831687
0.00052400626
0.00020966762
0.00022532676
0.0002540464
0.00028949129
0.0003279745
0.00036787793
0.00040929985
0.00045414296
0.00050767178
0.00052390884
0.00020873074
0.00022401362
0.00025222147
0.00028732865
0.0003257578
0.00036586589
0.00040767478
0.00045300633
0.00050706204
0.00052377701
0.00020759626
0.00022257034
0.00025036478
0.00028521722
0.00032364429
0.0003639783
0.00040616886
0.00045196033
0.00050648818
0.00052361995
0.00020632857
0.00022105297
0.00024852099
0.00028319205
0.0003216612
0.00036223532
0.00040479523
0.00045100892
0.00050595638
0.00052344554
0.00020498124
0.00021950768
0.00024672572
0.00028127954
0.0003198274
0.00036064908
0.00040355831
0.00045015505
0.00050547538
0.00052326146
0.00020359831
0.00021797186
0.00024500666
0.00027949856
0.00031815442
0.00035922386
0.00040245855
0.00044940269
0.00050504924
0.00052307421
0.00020221549
0.00021647526
0.0002433846
0.00027786143
0.0003166469
0.00035795861
0.0004014965
0.00044875171
0.00050467876
0.00052288895
0.00020086122
0.00021504095
0.00024187438
0.00027637441
0.00031530381
0.00035685191
0.00040066905
0.00044819883
0.00050436253
0.00052270967
0.00019955768
0.00021368628
0.000240485
0.00027503857
0.00031412337
0.00035589891
0.00039997005
0.00044773858
0.00050409772
0.00052253934
0.00019832143
0.00021242298
0.00023922115
0.00027385339
0.00031310064
0.00035509208
0.00039939132
0.00044736407
0.0005038806
0.00052238007
0.00019716408
0.00021125876
0.00023808486
0.0002728155
0.00031222826
0.00035442198
0.00039892333
0.00044706761
0.00050370692
0.00052223325
0.00019609367
0.00021019828
0.00023707551
0.00027191928
0.00031149707
0.00035387786
0.00039855578
0.0004468411
0.00050357223
0.0005220997
0.00019511518
0.00020924347
0.00023619023
0.00027115733
0.00031089664
0.00035344821
0.00039827802
0.00044667636
0.00050347203
0.00052197978
0.00019423108
0.00020839402
0.00023542432
0.00027052094
0.00031041574
0.0003531212
0.00039807942
0.0004465654
0.00050340194
0.00052187348
0.00019344166
0.00020764773
0.00023477168
0.00027000047
0.0003100427
0.00035288499
0.00039794961
0.00044650059
0.00050335778
0.00052178048
0.00019274543
0.00020700088
0.0002342251
0.00026958573
0.00030976577
0.000352728
0.00039787871
0.00044647473
0.00050333562
0.00052170026
0.00019213943
0.00020644854
0.00023377664
0.00026926622
0.00030957335
0.00035263911
0.00039785742
0.00044648118
0.00050333184
0.00052163213
0.00019161956
0.00020598487
0.00023341782
0.00026903144
0.00030945421
0.00035260785
0.00039787712
0.00044651387
0.00050334312
0.00052157528
0.00019118081
0.00020560336
0.00023313994
0.00026887105
0.00030939766
0.00035262445
0.00039792996
0.00044656731
0.00050336645
0.00052152881
0.00019081753
0.00020529707
0.00023293424
0.00026877506
0.00030939363
0.00035267993
0.00039800883
0.00044663662
0.00050339915
0.00052149179
0.00019052361
0.00020505882
0.00023279207
0.00026873397
0.00030943281
0.00035276616
0.0003981074
0.00044671749
0.00050343885
0.00052146327
0.00019029267
0.00020488138
0.00023270507
0.00026873885
0.0003095067
0.00035287587
0.00039822011
0.0004468062
0.00050348351
0.0005214423
0.00019011824
0.00020475759
0.00023266524
0.00026878146
0.00030960761
0.00035300263
0.00039834215
0.00044689955
0.00050353135
0.00052142796
0.00018999389
0.00020468049
0.00023266505
0.00026885425
0.00030972869
0.00035314082
0.00039846937
0.00044699486
0.00050358086
0.00052141937
0.00018991331
0.00020464341
0.00023269752
0.0002689504
0.00030986388
0.00035328559
0.00039859828
0.00044708983
0.00050363077
0.00052141568
0.00018987045
0.00020464007
0.00023275621
0.00026906379
0.00031000792
0.00035343283
0.00039872595
0.00044718262
0.00050367998
0.00052141608
0.00018985952
0.00020466458
0.00023283529
0.00026918905
0.00031015628
0.00035357907
0.00039884999
0.00044727169
0.00050372761
0.00052141984
0.00018987514
0.00020471153
0.00023292952
0.00026932151
0.00031030516
0.0003537215
0.00039896851
0.00044735591
0.00050377295
0.00052142627
0.00018991232
0.000204776
0.00023303431
0.00026945719
0.00031045143
0.00035385791
0.00039908008
0.00044743441
0.00050381551
0.00052143478
0.0001899665
0.00020485359
0.00023314566
0.00026959274
0.00031059257
0.00035398658
0.00039918369
0.00044750662
0.00050385457
0.0005214448
0.0001900336
0.00020494042
0.00023326013
0.00026972544
0.00031072663
0.0003541063
0.00039927863
0.00044757198
0.00050388973
0.00052145582
0.00019010999
0.0002050331
0.00023337486
0.00026985309
0.00031085214
0.00035421622
0.00039936441
0.0004476302
0.00050392109
0.00052146742
0.00019019249
0.00020512871
0.00023348746
0.00026997399
0.00031096806
0.00035431575
0.00039944071
0.00044768136
0.00050394889
0.00052147928
0.00019027834
0.00020522479
0.000233596
0.00027008685
0.00031107367
0.00035440455
0.0003995076
0.0004477258
0.0005039733
0.00052149114
0.00019036519
0.00020531928
0.00023369897
0.00027019076
0.00031116849
0.00035448259
0.00039956546
0.00044776387
0.00050399447
0.00052150275
0.00019045108
0.00020541052
0.00023379524
0.00027028505
0.0003112524
0.00035455024
0.00039961475
0.00044779596
0.00050401254
0.00052151393
0.00019053441
0.00020549721
0.00023388392
0.00027036943
0.00031132562
0.00035460798
0.00039965602
0.00044782251
0.00050402772
0.00052152452
0.0001906139
0.00020557831
0.0002339645
0.00027044392
0.00031138858
0.00035465645
0.00039968991
0.000447844
0.00050404024
0.00052153443
0.00019068856
0.00020565312
0.00023403675
0.00027050878
0.00031144188
0.00035469635
0.00039971709
0.00044786095
0.00050405036
0.00052154359
0.0001907577
0.00020572122
0.0002341007
0.00027056443
0.00031148618
0.00035472846
0.00039973827
0.00044787388
0.00050405835
0.00052155196
0.00019082089
0.00020578241
0.00023415652
0.0002706114
0.00031152222
0.00035475355
0.00039975412
0.00044788327
0.00050406445
0.00052155952
0.00019087787
0.00020583666
0.00023420453
0.00027065029
0.00031155077
0.00035477238
0.00039976527
0.00044788956
0.00050406888
0.00052156625
0.00019092859
0.0002058841
0.00023424514
0.00027068176
0.00031157256
0.00035478566
0.00039977233
0.00044789316
0.00050407179
0.00052157215
0.0001909731
0.00020592495
0.00023427883
0.00027070646
0.00031158835
0.00035479411
0.00039977585
0.00044789444
0.00050407338
0.00052157725
0.00019101159
0.00020595955
0.00023430613
0.0002707251
0.00031159888
0.0003547984
0.00039977638
0.00044789376
0.00050407382
0.00052158156
0.00019104432
0.00020598829
0.00023432762
0.00027073838
0.00031160487
0.00035479918
0.00039977443
0.00044789149
0.00050407329
0.00052158515
0.00019107167
0.00020601164
0.00023434392
0.00027074701
0.00031160705
0.00035479711
0.00039977054
0.00044788799
0.00050407203
0.00052158808
0.00019109405
0.00020603011
0.00023435565
0.00027075167
0.00031160608
0.00035479277
0.00039976517
0.00044788361
0.00050407024
0.00052159042
0.00019111192
0.00020604422
0.00023436343
0.00027075303
0.00031160261
0.00035478672
0.00039975875
0.00044787864
0.00050406809
0.00052159225
0.00019112575
0.00020605449
0.00023436783
0.00027075168
0.00031159717
0.0003547794
0.00039975161
0.00044787331
0.00050406571
0.00052159363
0.00019113601
0.00020606142
0.00023436938
0.00027074815
0.00031159025
0.00035477121
0.00039974405
0.00044786779
0.00050406319
0.0005215946
0.00019114311
0.00020606547
0.00023436856
0.00027074288
0.00031158223
0.00035476244
0.00039973625
0.0004478622
0.00050406056
0.00052159521
0.00019114747
0.00020606706
0.0002343658
0.00027073629
0.00031157346
0.00035475335
0.0003997284
0.00044785662
0.00050405785
0.0005215955
0.00019114946
0.00020606657
0.00023436148
0.00027072871
0.00031156421
0.00035474415
0.00039972062
0.00044785114
0.00050405512
0.0005215955
0.00019114945
0.00020606435
0.00023435594
0.00027072046
0.00031155476
0.00035473505
0.00039971306
0.00044784584
0.0005040524
0.00052159527
0.00019114777
0.00020606076
0.00023434951
0.00027071184
0.00031154533
0.00035472623
0.00039970586
0.00044784083
0.00050404979
0.00052159486
0.00019114475
0.00020605611
0.00023434248
0.0002707031
0.00031153615
0.00035471783
0.00039969912
0.00044783618
0.00050404735
0.00052159432
0.0001911407
0.0002060507
0.00023433515
0.00027069448
0.00031152738
0.00035470999
0.00039969291
0.00044783193
0.00050404508
0.00052159369
)
;

boundaryField
{
    water_inlet
    {
        type            turbulentIntensityKineticEnergyInlet;
        intensity       0.05;
        value           uniform 0.000234375;
    }
    water_outlet
    {
        type            inletOutlet;
        inletValue      uniform 0.0001;
        value           nonuniform List<scalar> 10(0.0001911407 0.0002060507 0.00023433515 0.00027069448 0.00031152738 0.00035470999 0.00039969291 0.00044783193 0.00050404508 0.00052159369);
    }
    water_wedge1
    {
        type            wedge;
    }
    water_wedge2
    {
        type            wedge;
    }
    water_to_rock
    {
        type            kqRWallFunction;
        value           nonuniform List<scalar> 
100
(
0.00048657967
0.00057072179
0.00057180213
0.00054812305
0.00052456948
0.00050861033
0.00050003843
0.00049629324
0.00049505658
0.00049493719
0.0004952802
0.00049583488
0.00049652591
0.0004973375
0.00049826651
0.00049930747
0.00050044509
0.00050166204
0.00050294668
0.00050428923
0.00050567922
0.00050710513
0.00050855489
0.00051001615
0.00051147621
0.00051292166
0.00051433788
0.00051570873
0.00051701666
0.00051824364
0.00051937243
0.00052038816
0.00052127965
0.00052204031
0.00052266847
0.00052316715
0.00052354345
0.00052380768
0.00052397234
0.00052405109
0.00052405788
0.00052400626
0.00052390884
0.00052377701
0.00052361995
0.00052344554
0.00052326146
0.00052307421
0.00052288895
0.00052270967
0.00052253934
0.00052238007
0.00052223325
0.0005220997
0.00052197978
0.00052187348
0.00052178048
0.00052170026
0.00052163213
0.00052157528
0.00052152881
0.00052149179
0.00052146327
0.0005214423
0.00052142796
0.00052141937
0.00052141568
0.00052141608
0.00052141984
0.00052142627
0.00052143478
0.0005214448
0.00052145582
0.00052146742
0.00052147928
0.00052149114
0.00052150275
0.00052151393
0.00052152452
0.00052153443
0.00052154359
0.00052155196
0.00052155952
0.00052156625
0.00052157215
0.00052157725
0.00052158156
0.00052158515
0.00052158808
0.00052159042
0.00052159225
0.00052159363
0.0005215946
0.00052159521
0.0005215955
0.0005215955
0.00052159527
0.00052159486
0.00052159432
0.00052159369
)
;
    }
}


// ************************************************************************* //
