/*--------------------------------*- C++ -*----------------------------------*\
| =========                 |                                                 |
| \\      /  F ield         | OpenFOAM: The Open Source CFD Toolbox           |
|  \\    /   O peration     | Version:  2506                                  |
|   \\  /    A nd           | Website:  www.openfoam.com                      |
|    \\/     M anipulation  |                                                 |
\*---------------------------------------------------------------------------*/
FoamFile
{
    version     2.0;
    format      ascii;
    arch        "LSB;label=32;scalar=64";
    class       volScalarField;
    location    "5000/water";
    object      nut;
}
// * * * * * * * * * * * * * * * * * * * * * * * * * * * * * * * * * * * * * //

dimensions      [0 2 -1 0 0 0 0];

internalField   nonuniform List<scalar> 
1000
(
3.8760013e-05
3.8759344e-05
3.875781e-05
3.8749425e-05
3.8703919e-05
3.8465194e-05
3.7257946e-05
3.1920746e-05
1.9133704e-05
1.6330702e-05
3.6503362e-05
3.6502673e-05
3.6496233e-05
3.646333e-05
3.6309099e-05
3.5625575e-05
3.2857821e-05
2.4520506e-05
1.4670673e-05
1.7686427e-05
3.4818769e-05
3.4815355e-05
3.4798028e-05
3.4720761e-05
3.4400236e-05
3.3155723e-05
2.8966464e-05
2.0114727e-05
1.4313149e-05
1.7703159e-05
3.3515366e-05
3.3507685e-05
3.3473492e-05
3.3336595e-05
3.2819803e-05
3.0995873e-05
2.581627e-05
1.8304749e-05
1.5980576e-05
1.7332726e-05
3.247679e-05
3.2463573e-05
3.2409014e-05
3.22085e-05
3.1494114e-05
2.9122754e-05
2.359844e-05
1.866917e-05
1.8895343e-05
1.6956228e-05
3.1628598e-05
3.1609534e-05
3.1536362e-05
3.1282474e-05
3.0382817e-05
2.7534847e-05
2.2595773e-05
2.084117e-05
2.231903e-05
1.6696304e-05
3.0922115e-05
3.0899107e-05
3.0816968e-05
3.0532912e-05
2.945515e-05
2.633977e-05
2.3103649e-05
2.4287719e-05
2.5587449e-05
1.6555013e-05
3.0325437e-05
3.0303994e-05
3.0232576e-05
2.994841e-05
2.8696054e-05
2.583415e-05
2.5183983e-05
2.8331504e-05
2.8355973e-05
1.64929e-05
2.9818406e-05
2.9809195e-05
2.9779275e-05
2.9521814e-05
2.8157944e-05
2.6404945e-05
2.8559894e-05
3.239274e-05
3.0574161e-05
1.6472339e-05
2.9389964e-05
2.9410469e-05
2.9462812e-05
2.9249453e-05
2.8031701e-05
2.828851e-05
3.2740234e-05
3.6145624e-05
3.2325697e-05
1.6470352e-05
2.9037016e-05
2.911304e-05
2.929408e-05
2.9152136e-05
2.863522e-05
3.1431773e-05
3.7231716e-05
3.9484616e-05
3.3719811e-05
1.6476057e-05
2.8764315e-05
2.8930767e-05
2.9285859e-05
2.9323188e-05
3.026987e-05
3.5542624e-05
4.168372e-05
4.241786e-05
3.4850434e-05
1.648528e-05
2.858508e-05
2.8885054e-05
2.9456367e-05
2.9966879e-05
3.3062335e-05
4.0233947e-05
4.5910747e-05
4.4991501e-05
3.5787781e-05
1.6496763e-05
2.8522054e-05
2.900313e-05
2.9849309e-05
3.1360223e-05
3.6918741e-05
4.5156928e-05
4.984135e-05
4.7257374e-05
3.6581228e-05
1.6510242e-05
2.8608602e-05
2.9316783e-05
3.0571038e-05
3.3736604e-05
4.1587081e-05
5.0067415e-05
5.3462077e-05
4.926272e-05
3.7264889e-05
1.6525657e-05
2.8889275e-05
2.9866089e-05
3.1814742e-05
3.7181092e-05
4.6760713e-05
5.4824927e-05
5.6784072e-05
5.1047418e-05
3.7861887e-05
1.6542912e-05
2.9419616e-05
3.0715912e-05
3.3825422e-05
4.1606115e-05
5.2165102e-05
5.9359845e-05
5.9827335e-05
5.2642592e-05
3.8382036e-05
1.6561747e-05
3.0266846e-05
3.1985762e-05
3.6808038e-05
4.6798822e-05
5.7598996e-05
6.3641843e-05
6.261342e-05
5.406886e-05
3.8841656e-05
1.6581871e-05
3.1517262e-05
3.3869119e-05
4.0842572e-05
5.2497634e-05
6.2933652e-05
6.7660537e-05
6.5161081e-05
5.5349531e-05
3.9251416e-05
1.6603087e-05
3.3297343e-05
3.6603605e-05
4.5857872e-05
5.8458792e-05
6.8092337e-05
7.1415473e-05
6.748896e-05
5.6504102e-05
3.9619135e-05
1.6625232e-05
3.5799919e-05
4.0389485e-05
5.1664061e-05
6.4490884e-05
7.302902e-05
7.4907506e-05
6.9617586e-05
5.7547429e-05
3.9950814e-05
1.6648129e-05
3.9277443e-05
4.5307084e-05
5.8014128e-05
7.0457409e-05
7.7711535e-05
7.8146522e-05
7.1563812e-05
5.8491383e-05
4.0250765e-05
1.6671587e-05
4.3968391e-05
5.1283208e-05
6.4662148e-05
7.6261066e-05
8.2121491e-05
8.1143295e-05
7.3341114e-05
5.9345143e-05
4.052202e-05
1.6695404e-05
4.9983261e-05
5.8114512e-05
7.1396345e-05
8.183011e-05
8.624979e-05
8.3906093e-05
7.4959924e-05
6.0115525e-05
4.0766628e-05
1.6719374e-05
5.7223675e-05
6.5522263e-05
7.8045939e-05
8.711395e-05
9.0089628e-05
8.6440382e-05
7.6427636e-05
6.0807292e-05
4.0985876e-05
1.6743286e-05
6.5385014e-05
7.3207769e-05
8.4484098e-05
9.2075075e-05
9.3632788e-05
8.8748404e-05
7.7748687e-05
6.1423355e-05
4.1180397e-05
1.6766921e-05
7.4038108e-05
8.0898636e-05
9.0616275e-05
9.6680513e-05
9.6869263e-05
9.082921e-05
7.892473e-05
6.196491e-05
4.1350204e-05
1.6790046e-05
8.2739278e-05
8.8365006e-05
9.6366238e-05
0.0001009015
9.978803e-05
9.2679367e-05
7.9955105e-05
6.2431696e-05
4.1494764e-05
1.6812404e-05
9.1115588e-05
9.5424875e-05
0.00010167292
0.0001047146
0.00010237889
9.4294437e-05
8.083783e-05
6.282253e-05
4.1613198e-05
1.6833714e-05
9.8902673e-05
0.00010194482
0.00010649049
0.00010810352
0.00010463489
9.5671033e-05
8.1571031e-05
6.3136153e-05
4.1704633e-05
1.6853683e-05
0.00010594363
0.00010783808
0.0001107895
0.000111061
0.00010655459
9.6808916e-05
8.2154514e-05
6.3372186e-05
4.1768628e-05
1.6872034e-05
0.0001121681
0.0001130599
0.00011455743
0.00011358973
0.00010814356
9.7712559e-05
8.2591026e-05
6.3531934e-05
4.1805509e-05
1.6888526e-05
0.00011756703
0.00011760063
0.00011779793
0.00011570227
0.00010941471
9.8391794e-05
8.2886904e-05
6.3618809e-05
4.181654e-05
1.6902984e-05
0.00012217069
0.00012147759
0.00012052877
0.0001174199
0.00011038757
9.8861555e-05
8.3052049e-05
6.3638349e-05
4.1803901e-05
1.6915308e-05
0.00012603247
0.00012472707
0.00012277888
0.00011877077
0.00011108698
9.9140958e-05
8.309938e-05
6.3597899e-05
4.1770519e-05
1.6925479e-05
0.00012921772
0.00012739743
0.00012458518
0.00011978786
0.00011154135
9.925206e-05
8.3044e-05
6.3506119e-05
4.171984e-05
1.6933549e-05
0.00013179654
0.00012954362
0.00012598955
0.00012050703
0.00011178114
9.9218576e-05
8.2902283e-05
6.3372425e-05
4.1655583e-05
1.6939639e-05
0.00013383933
0.00013122315
0.00012703628
0.00012096531
0.00011183736
9.9064706e-05
8.2690992e-05
6.3206441e-05
4.1581507e-05
1.6943915e-05
0.00013541409
0.00013249328
0.0001277701
0.00012119949
0.00011174053
9.8814143e-05
8.2426511e-05
6.3017516e-05
4.150121e-05
1.694658e-05
0.00013658488
0.00013340917
0.0001282346
0.00012124507
0.00011151968
9.8489285e-05
8.2124216e-05
6.2814315e-05
4.1417955e-05
1.6947855e-05
0.00013741092
0.00013402263
0.0001284712
0.00012113547
0.00011120177
9.8110653e-05
8.1798011e-05
6.2604528e-05
4.1334559e-05
1.6947966e-05
0.00013794621
0.00013438149
0.00012851837
0.00012090145
0.00011081121
9.7696522e-05
8.146003e-05
6.239469e-05
4.1253325e-05
1.6947132e-05
0.00013823939
0.00013452918
0.00012841125
0.00012057081
0.00011036964
9.7262736e-05
8.1120516e-05
6.2190123e-05
4.1176035e-05
1.6945556e-05
0.00013833383
0.00013450465
0.00012818143
0.00012016826
0.00010989588
9.6822684e-05
8.0787825e-05
6.1994962e-05
4.1103971e-05
1.6943424e-05
0.00013826784
0.00013434244
0.00012785691
0.00011971542
0.00010940596
9.6387345e-05
8.0468424e-05
6.1811979e-05
4.1036897e-05
1.6940884e-05
0.00013807497
0.00013407287
0.00012746224
0.0001192309
0.00010891324
9.5965402e-05
8.0166922e-05
6.1642237e-05
4.0975949e-05
1.6938062e-05
0.00013778436
0.00013372232
0.00012701863
0.00011873045
0.00010842851
9.5563307e-05
7.9885858e-05
6.1487821e-05
4.0921599e-05
1.6935083e-05
0.00013742114
0.0001333135
0.00012654418
0.00011822713
0.00010796016
9.5185214e-05
7.9628355e-05
6.134953e-05
4.0874011e-05
1.6932052e-05
0.00013700674
0.00013286571
0.00012605408
0.00011773136
0.00010751411
9.4835407e-05
7.9395862e-05
6.1227579e-05
4.08331e-05
1.6929053e-05
0.00013655922
0.00013239513
0.00012556059
0.00011725109
0.00010709608
9.45163e-05
7.9188917e-05
6.1121728e-05
4.0798593e-05
1.692615e-05
0.00013609349
0.00013191489
0.0001250738
0.00011679369
0.00010670977
9.422911e-05
7.900735e-05
6.1031371e-05
4.0770088e-05
1.6923392e-05
0.00013562189
0.00013143621
0.0001246025
0.00011636444
0.00010635749
9.3974116e-05
7.8850433e-05
6.0955639e-05
4.0747103e-05
1.6920812e-05
0.00013515482
0.00013096842
0.00012415344
0.00011596706
0.0001060404
9.375084e-05
7.8717015e-05
6.0893479e-05
4.0729112e-05
1.6918433e-05
0.00013470076
0.00013051893
0.00012373171
0.00011560394
0.00010575871
9.3558203e-05
7.8605631e-05
6.0843722e-05
4.071557e-05
1.6916269e-05
0.00013426642
0.00013009343
0.00012334092
0.00011527633
0.00010551185
9.3394667e-05
7.8514603e-05
6.0805138e-05
4.0705937e-05
1.6914326e-05
0.0001338569
0.00012969616
0.00012298339
0.00011498454
0.00010529863
9.3258359e-05
7.8442121e-05
6.0776481e-05
4.0699685e-05
1.6912604e-05
0.00013347595
0.00012933
0.00012266041
0.00011472809
0.00010511739
9.3147172e-05
7.8386312e-05
6.0756527e-05
4.0696318e-05
1.6911097e-05
0.00013312607
0.00012899675
0.00012237233
0.0001145059
0.00010496609
9.3058862e-05
7.8345301e-05
6.0744093e-05
4.0695371e-05
1.6909797e-05
0.00013280872
0.00012869724
0.00012211876
0.00011431637
0.00010484247
9.2991119e-05
7.8317244e-05
6.0738061e-05
4.0696418e-05
1.6908693e-05
0.00013252447
0.00012843148
0.00012189868
0.00011415753
0.00010474409
9.2941623e-05
7.8300369e-05
6.0737384e-05
4.0699069e-05
1.6907772e-05
0.00013227317
0.00012819883
0.0001217106
0.00011402715
0.00010466844
9.2908099e-05
7.8292991e-05
6.0741099e-05
4.0702975e-05
1.6907019e-05
0.000132054
0.00012799812
0.00012155265
0.00011392279
0.00010461299
9.2888353e-05
7.8293539e-05
6.0748325e-05
4.0707822e-05
1.6906419e-05
0.00013186571
0.00012782774
0.00012142267
0.00011384196
0.00010457526
9.2880313e-05
7.8300571e-05
6.0758278e-05
4.0713341e-05
1.6905957e-05
0.00013170664
0.00012768577
0.00012131836
0.00011378211
0.00010455286
9.2882044e-05
7.8312778e-05
6.0770266e-05
4.0719299e-05
1.6905617e-05
0.00013157485
0.00012757008
0.00012123729
0.00011374074
0.00010454351
9.2891772e-05
7.832899e-05
6.0783684e-05
4.0725502e-05
1.6905384e-05
0.00013146822
0.00012747839
0.00012117702
0.00011371542
0.00010454509
9.2907879e-05
7.834817e-05
6.0798012e-05
4.0731783e-05
1.6905245e-05
0.00013138449
0.00012740835
0.00012113509
0.00011370384
0.00010455563
9.2928903e-05
7.83694e-05
6.0812799e-05
4.0738005e-05
1.6905185e-05
0.00013132136
0.00012735756
0.00012110913
0.00011370377
0.00010457332
9.2953535e-05
7.8391879e-05
6.0827659e-05
4.074405e-05
1.6905192e-05
0.00013127647
0.00012732368
0.00012109682
0.00011371318
0.00010459651
9.2980617e-05
7.8414916e-05
6.0842269e-05
4.074982e-05
1.6905253e-05
0.00013124753
0.00012730439
0.000121096
0.00011373017
0.00010462373
9.300915e-05
7.8437934e-05
6.0856369e-05
4.0755245e-05
1.6905357e-05
0.00013123231
0.00012729751
0.00012110464
0.00011375304
0.00010465371
9.3038289e-05
7.8460463e-05
6.0869764e-05
4.0760275e-05
1.6905495e-05
0.00013122871
0.000127301
0.00012112088
0.00011378028
0.00010468534
9.306734e-05
7.8482139e-05
6.0882302e-05
4.0764839e-05
1.6905657e-05
0.00013123477
0.00012731297
0.00012114308
0.00011381058
0.00010471771
9.3095735e-05
7.8502669e-05
6.0893845e-05
4.0768922e-05
1.6905835e-05
0.00013124869
0.00012733169
0.00012116973
0.0001138428
0.00010475003
9.3123009e-05
7.8521807e-05
6.0904332e-05
4.0772549e-05
1.6906022e-05
0.00013126882
0.00012735561
0.00012119951
0.00011387593
0.00010478165
9.3148771e-05
7.8539395e-05
6.091376e-05
4.0775738e-05
1.6906215e-05
0.00013129366
0.00012738333
0.00012123126
0.00011390912
0.00010481199
9.3172731e-05
7.8555369e-05
6.0922126e-05
4.0778506e-05
1.6906407e-05
0.00013132186
0.00012741359
0.00012126396
0.00011394162
0.00010484062
9.3194732e-05
7.8569681e-05
6.0929445e-05
4.0780872e-05
1.6906595e-05
0.00013135223
0.00012744529
0.0001212967
0.00011397286
0.00010486727
9.3214662e-05
7.8582326e-05
6.0935747e-05
4.0782855e-05
1.6906777e-05
0.00013138372
0.00012747747
0.00012132878
0.00011400241
0.00010489173
9.3232477e-05
7.8593341e-05
6.0941086e-05
4.0784483e-05
1.6906949e-05
0.00013141545
0.00012750938
0.00012135966
0.00011403
0.00010491391
9.3248197e-05
7.8602798e-05
6.0945531e-05
4.0785789e-05
1.6907109e-05
0.00013144674
0.00012754042
0.00012138896
0.00011405541
0.00010493377
9.3261894e-05
7.86108e-05
6.0949164e-05
4.0786813e-05
1.6907257e-05
0.00013147704
0.00012757014
0.00012141637
0.00011407854
0.00010495136
9.3273671e-05
7.8617462e-05
6.095207e-05
4.0787591e-05
1.6907392e-05
0.00013150594
0.00012759819
0.0001214417
0.00011409935
0.00010496672
9.3283648e-05
7.8622903e-05
6.0954331e-05
4.0788158e-05
1.6907514e-05
0.00013153312
0.00012762432
0.00012146482
0.00011411784
0.00010497996
9.3291945e-05
7.862723e-05
6.0956016e-05
4.0788539e-05
1.6907623e-05
0.00013155833
0.00012764833
0.00012148563
0.00011413403
0.00010499117
9.3298683e-05
7.8630545e-05
6.0957185e-05
4.0788756e-05
1.690772e-05
0.00013158138
0.00012767009
0.00012150411
0.00011414798
0.00010500046
9.3303985e-05
7.8632945e-05
6.0957894e-05
4.0788823e-05
1.6907803e-05
0.00013160218
0.00012768953
0.00012152026
0.00011415979
0.00010500798
9.3307983e-05
7.8634531e-05
6.09582e-05
4.0788761e-05
1.6907874e-05
0.00013162067
0.00012770665
0.00012153417
0.00011416959
0.00010501387
9.3310825e-05
7.8635416e-05
6.0958168e-05
4.0788592e-05
1.6907932e-05
0.00013163689
0.00012772152
0.00012154596
0.00011417754
0.00010501832
9.3312675e-05
7.8635717e-05
6.0957868e-05
4.0788344e-05
1.6907979e-05
0.00013165093
0.00012773426
0.00012155579
0.00011418385
0.00010502153
9.3313696e-05
7.8635554e-05
6.095737e-05
4.0788046e-05
1.6908016e-05
0.00013166294
0.00012774503
0.00012156384
0.00011418871
0.00010502368
9.3314044e-05
7.8635036e-05
6.0956734e-05
4.0787722e-05
1.6908045e-05
0.00013167308
0.000127754
0.00012157031
0.00011419232
0.00010502494
9.3313851e-05
7.863425e-05
6.095601e-05
4.078739e-05
1.6908068e-05
0.00013168149
0.00012776133
0.00012157536
0.00011419483
0.00010502546
9.3313219e-05
7.8633261e-05
6.0955225e-05
4.0787055e-05
1.6908084e-05
0.00013168833
0.00012776717
0.00012157914
0.00011419638
0.00010502534
9.3312228e-05
7.8632114e-05
6.0954398e-05
4.078672e-05
1.6908095e-05
0.00013169371
0.00012777164
0.00012158178
0.00011419709
0.00010502468
9.3310943e-05
7.8630844e-05
6.095354e-05
4.0786384e-05
1.6908101e-05
0.00013169774
0.00012777486
0.00012158339
0.00011419707
0.00010502357
9.3309427e-05
7.8629485e-05
6.0952663e-05
4.0786046e-05
1.6908102e-05
0.00013170054
0.00012777696
0.00012158411
0.00011419643
0.0001050221
9.3307745e-05
7.8628078e-05
6.0951788e-05
4.0785713e-05
1.6908099e-05
0.00013170224
0.00012777807
0.00012158407
0.0001141953
0.00010502036
9.3305968e-05
7.8626667e-05
6.0950936e-05
4.0785394e-05
1.6908093e-05
0.00013170299
0.00012777833
0.00012158341
0.0001141938
0.00010501847
9.3304167e-05
7.8625296e-05
6.0950135e-05
4.0785101e-05
1.6908085e-05
0.00013170294
0.00012777791
0.00012158226
0.00011419205
0.0001050165
9.3302396e-05
7.8623998e-05
6.0949398e-05
4.0784839e-05
1.6908075e-05
)
;

boundaryField
{
    water_inlet
    {
        type            calculated;
        value           uniform 4.1926275e-05;
    }
    water_outlet
    {
        type            calculated;
        value           nonuniform List<scalar> 10(0.00013170294 0.00012777791 0.00012158226 0.00011419205 0.0001050165 9.3302396e-05 7.8623998e-05 6.0949398e-05 4.0784839e-05 1.6908075e-05);
    }
    water_wedge1
    {
        type            wedge;
    }
    water_wedge2
    {
        type            wedge;
    }
    water_to_rock
    {
        type            nutkWallFunction;
        blending        stepwise;
        value           nonuniform List<scalar> 
100
(
1.7358471e-06
1.9240026e-06
1.9263124e-06
1.8751053e-06
1.8229107e-06
1.7867865e-06
1.7671181e-06
1.7584647e-06
1.7555992e-06
1.7553223e-06
1.7561176e-06
1.7574031e-06
1.7590033e-06
1.7608812e-06
1.7630286e-06
1.7654321e-06
1.7680555e-06
1.7708581e-06
1.7738124e-06
1.7768953e-06
1.7800823e-06
1.7833465e-06
1.7866599e-06
1.7899942e-06
1.7933204e-06
1.796608e-06
1.799824e-06
1.8029322e-06
1.8058934e-06
1.8086675e-06
1.8112162e-06
1.813507e-06
1.8155156e-06
1.8172278e-06
1.8186407e-06
1.8197617e-06
1.8206072e-06
1.8212006e-06
1.8215704e-06
1.8217472e-06
1.8217624e-06
1.8216465e-06
1.8214278e-06
1.8211318e-06
1.820779e-06
1.8203872e-06
1.8199736e-06
1.8195528e-06
1.8191364e-06
1.8187333e-06
1.8183503e-06
1.8179921e-06
1.8176619e-06
1.8173614e-06
1.8170916e-06
1.8168524e-06
1.8166431e-06
1.8164625e-06
1.8163092e-06
1.8161812e-06
1.8160766e-06
1.8159932e-06
1.815929e-06
1.8158818e-06
1.8158495e-06
1.8158302e-06
1.8158219e-06
1.8158228e-06
1.8158312e-06
1.8158457e-06
1.8158649e-06
1.8158874e-06
1.8159122e-06
1.8159384e-06
1.8159651e-06
1.8159918e-06
1.8160179e-06
1.8160431e-06
1.8160669e-06
1.8160892e-06
1.8161099e-06
1.8161287e-06
1.8161457e-06
1.8161609e-06
1.8161741e-06
1.8161856e-06
1.8161953e-06
1.8162034e-06
1.81621e-06
1.8162153e-06
1.8162194e-06
1.8162225e-06
1.8162247e-06
1.8162261e-06
1.8162267e-06
1.8162267e-06
1.8162262e-06
1.8162253e-06
1.816224e-06
1.8162226e-06
)
;
    }
}


// ************************************************************************* //
