/*--------------------------------*- C++ -*----------------------------------*\
| =========                 |                                                 |
| \\      /  F ield         | OpenFOAM: The Open Source CFD Toolbox           |
|  \\    /   O peration     | Version:  2506                                  |
|   \\  /    A nd           | Website:  www.openfoam.com                      |
|    \\/     M anipulation  |                                                 |
\*---------------------------------------------------------------------------*/
FoamFile
{
    version     2.0;
    format      ascii;
    arch        "LSB;label=32;scalar=64";
    class       surfaceScalarField;
    location    "5000/water";
    object      phi;
}
// * * * * * * * * * * * * * * * * * * * * * * * * * * * * * * * * * * * * * //

dimensions      [1 0 -1 0 0 0 0];

oriented        oriented;

internalField   nonuniform List<scalar> 
1890
(
-4.1736247e-05
0.0022168351
-0.00015753622
0.0059586937
-0.00032930669
0.0087985477
-0.00054203243
0.010900937
-0.00078239504
0.012402155
-0.0010351826
0.013412336
-0.0012746193
0.014013996
-0.0014359745
0.014245356
-0.001284859
0.0140006
0.012745539
-3.1455823e-05
0.0022482909
-0.00011269723
0.0060399351
-0.00023219388
0.0089180443
-0.00037999426
0.011048737
-0.00054594262
0.012568103
-0.00071649911
0.013582893
-0.00086674526
0.014164242
-0.00093361973
0.01431223
-0.00073394527
0.013800926
0.012011594
-2.9138829e-05
0.0022774298
-0.00010672996
0.0061175262
-0.00022105544
0.0090323698
-0.00036160333
0.011189285
-0.00051700153
0.012723501
-0.00067116255
0.013737054
-0.00079396236
0.014287042
-0.00081139907
0.014329667
-0.00056730066
0.013556827
0.011444293
-2.7339931e-05
0.0023047697
-0.00010102595
0.0061912122
-0.00020924234
0.0091405861
-0.00034097891
0.011321022
-0.00048374659
0.012866269
-0.0006191148
0.013872422
-0.00071088205
0.014378809
-0.00067660038
0.014295385
-0.00042026258
0.01330049
0.01102403
-2.5625222e-05
0.0023303949
-9.4386095e-05
0.0062599731
-0.00019506679
0.0092412668
-0.00031669839
0.011442653
-0.00044589456
0.012995465
-0.00056132312
0.013987851
-0.0006188263
0.014436313
-0.00053651159
0.014213071
-0.00029565448
0.013059632
0.010728376
-2.4159483e-05
0.0023545544
-8.8799458e-05
0.006324613
-0.00018306039
0.0093355278
-0.00029574154
0.011555334
-0.00041210852
0.013111832
-0.00050662246
0.014082365
-0.00052703544
0.014456726
-0.00040878336
0.014094819
-0.00020043202
0.012851281
0.010527944
-2.2965487e-05
0.0023775199
-8.4333488e-05
0.006385981
-0.00017335346
0.0094245477
-0.00027826871
0.01166025
-0.00038232704
0.01321589
-0.00045437886
0.014154416
-0.0004382055
0.014440552
-0.00030321669
0.01395983
-0.00013378858
0.012681853
0.010394155
-2.2023852e-05
0.0023995437
-8.0769829e-05
0.006444727
-0.00016540586
0.0095091837
-0.00026327221
0.011758116
-0.00035472722
0.013307345
-0.00040244412
0.014202133
-0.00035545976
0.014393568
-0.00022237021
0.01382674
-8.9856003e-05
0.012549339
0.010304299
-2.1260575e-05
0.0024208043
-7.781264e-05
0.0065012791
-0.00015855244
0.0095899235
-0.00024948556
0.011849049
-0.0003271228
0.013384983
-0.00034954661
0.014224557
-0.00028213
0.014326151
-0.00016300293
0.013707613
-6.1426374e-05
0.012447762
0.010242873
-2.0607157e-05
0.0024414115
-7.5216695e-05
0.0065558886
-0.00015223247
0.0096669393
-0.00023577797
0.011932595
-0.00029784681
0.013447051
-0.00029644861
0.014223159
-0.00022023982
0.014249942
-0.00011980563
0.013607179
-4.268949e-05
0.012370646
0.010200184
-2.0018284e-05
0.0024614297
-7.2804706e-05
0.006608675
-0.00014600139
0.0097401359
-0.00022120596
0.012007799
-0.00026613568
0.013491981
-0.0002453205
0.014202344
-0.00016974894
0.014174371
-8.795206e-05
0.013525382
-2.9806216e-05
0.0123125
0.010170377
-1.9463525e-05
0.0024808933
-7.0441374e-05
0.0066596529
-0.00013947748
0.009809172
-0.00020502204
0.012073344
-0.00023228128
0.01351924
-0.00019838539
0.014168448
-0.00012919782
0.014105183
-6.3918654e-05
0.013460103
-2.0485917e-05
0.012269067
0.010149891
-1.8918733e-05
0.002499812
-6.8008064e-05
0.0067087422
-0.00013229865
0.0098734626
-0.00018675562
0.012127801
-0.00019748157
0.013529966
-0.00015697992
0.014127946
-9.6699947e-05
0.014044903
-4.5354339e-05
0.013408757
-1.3426189e-05
0.012237139
0.010136465
-1.836038e-05
0.0025181724
-6.5381764e-05
0.0067557636
-0.00012410682
0.0099321877
-0.00016633424
0.012170028
-0.00016333241
0.013526965
-0.00012140608
0.01408602
-7.0529449e-05
0.013994027
-3.0718937e-05
0.013368947
-7.8888455e-06
0.012214309
0.010128576
-1.7761425e-05
0.0025359338
-6.2419628e-05
0.0068004218
-0.00011457679
0.0099843449
-0.00014416221
0.012199614
-0.00013123947
0.013514042
-9.1272673e-05
0.014046053
-4.929554e-05
0.013952049
-1.8985602e-05
0.013338637
-3.4320977e-06
0.012198756
0.010125144
-1.708792e-05
0.0025530217
-5.8952483e-05
0.0068422864
-0.0001034902
0.010028883
-0.00012105238
0.012217176
-0.00010208304
0.013495072
-6.5899105e-05
0.014009869
-3.193209e-05
0.013918082
-9.4508368e-06
0.013316156
2.8692201e-07
0.012189018
0.010125431
-1.6296464e-05
0.0025693182
-5.47932e-05
0.0068807831
-9.0832114e-05
0.010064922
-9.7998632e-05
0.012224342
-7.620999e-05
0.013473284
-4.4572227e-05
0.013978231
-1.7627452e-05
0.013891138
-1.5575038e-06
0.013300086
3.3716144e-06
0.012184089
0.010128803
-1.5331759e-05
0.00258465
-4.9761924e-05
0.0069152133
-7.6852567e-05
0.010092012
-7.589863e-05
0.012223388
-5.3589251e-05
0.013450975
-2.6635108e-05
0.013951277
-5.7260922e-06
0.013870229
4.9973106e-06
0.013289362
5.8491397e-06
0.012183237
0.010134652
-1.4126738e-05
0.0025987767
-4.3732708e-05
0.0069448193
-6.2044313e-05
0.010110324
-5.5379824e-05
0.012216724
-3.3986388e-05
0.013429581
-1.151243e-05
0.013928803
4.2370489e-06
0.013854479
1.0367792e-05
0.013283231
7.8668044e-06
0.012185738
0.010142519
-1.2609155e-05
0.0026113859
-3.6694781e-05
0.0069689049
-4.7031506e-05
0.010120661
-3.677554e-05
0.012206468
-1.7080785e-05
0.013409886
1.328151e-06
0.013910394
1.2527017e-05
0.01384328
1.4774046e-05
0.013280984
9.5158742e-06
0.012190996
0.010152035
-1.071864e-05
0.0026221045
-2.8800912e-05
0.0069869872
-3.2420326e-05
0.01012428
-2.0181553e-05
0.012194229
-2.4811626e-06
0.013392186
1.2171709e-05
0.013895741
1.9376686e-05
0.013836075
1.8389796e-05
0.013281971
1.0861737e-05
0.012198524
0.010162896
-8.4363212e-06
0.0026305408
-2.0369415e-05
0.0069989203
-1.8684835e-05
0.010122595
-5.5180363e-06
0.012181062
1.0030894e-05
0.013376637
2.1196833e-05
0.013884576
2.5023516e-05
0.013832249
2.1344927e-05
0.01328565
1.1951278e-05
0.012207918
0.010174848
-5.8190474e-06
0.0026363599
-1.1825721e-05
0.007004927
-6.1111167e-06
0.010116881
7.2760533e-06
0.012167675
2.056968e-05
0.013363343
2.8683342e-05
0.013876462
2.9653019e-05
0.013831279
2.373697e-05
0.013291566
1.2818543e-05
0.012218837
0.010187666
-3.0144934e-06
0.0026393744
-3.5968442e-06
0.0070055093
5.1012377e-06
0.010108183
1.8188768e-05
0.012154588
2.9351726e-05
0.01335218
3.4836769e-05
0.013870977
3.3403504e-05
0.013832712
2.5637827e-05
0.013299332
1.348813e-05
0.012230986
0.010201154
-2.3453394e-07
0.0026396089
3.905738e-06
0.007001369
1.4738001e-05
0.01009735
2.7282039e-05
0.012142044
3.6555856e-05
0.013342907
3.9807793e-05
0.013867725
3.6372767e-05
0.013836147
2.7096709e-05
0.013308608
1.3976265e-05
0.012244107
0.010215131
2.2766811e-06
0.0026373322
1.0307635e-05
0.0069933381
2.2679922e-05
0.010084978
3.4653499e-05
0.01213007
4.230593e-05
0.013335254
4.3693959e-05
0.013866337
3.8618844e-05
0.013841222
2.8138831e-05
0.013319088
1.4288872e-05
0.012257957
0.010229419
4.3217236e-06
0.0026330105
1.5394999e-05
0.0069822648
2.8920487e-05
0.010071453
4.0373468e-05
0.012118617
4.6677905e-05
0.01332895
4.6546496e-05
0.013866468
4.0164283e-05
0.013847605
2.8767083e-05
0.013330485
1.4421837e-05
0.012272302
0.010243841
5.8175797e-06
0.0026271929
1.9124677e-05
0.0069689577
3.34949e-05
0.010057082
4.4502189e-05
0.01210761
4.9718943e-05
0.013323733
4.8386699e-05
0.0138678
4.1008205e-05
0.013854983
2.8969661e-05
0.013342523
1.4364717e-05
0.012286907
0.010258206
6.7761575e-06
0.0026204168
2.1563826e-05
0.00695417
3.6489524e-05
0.010042157
4.7111871e-05
0.012096988
5.1471424e-05
0.013319373
4.9227142e-05
0.013870045
4.114278e-05
0.013863068
2.873119e-05
0.013354935
1.4106077e-05
0.012301532
0.010272312
7.2696352e-06
0.0026131471
2.2858693e-05
0.006938581
3.8043939e-05
0.010026971
4.8304603e-05
0.012086727
5.1995267e-05
0.013315683
4.9092848e-05
0.013872947
4.0570655e-05
0.01387159
2.8045066e-05
0.013367461
1.3640064e-05
0.012315937
0.010285952
7.3947366e-06
0.0026057524
2.3199538e-05
0.0069227762
3.834233e-05
0.010011829
4.8220223e-05
0.012076849
5.1382372e-05
0.013312521
4.8036703e-05
0.013876293
3.9318309e-05
0.013880308
2.6923064e-05
0.013379856
1.297124e-05
0.012329889
0.010298923
7.2476291e-06
0.0025985048
2.2789034e-05
0.0069072348
3.7596569e-05
0.0099970211
4.7032741e-05
0.012067413
4.9760215e-05
0.013309793
4.6145721e-05
0.013879907
3.7442188e-05
0.013889012
2.5399681e-05
0.013391898
1.211647e-05
0.012343172
0.01031104
6.9113722e-06
0.0025915934
2.1819351e-05
0.0068923268
3.6026844e-05
0.0099828136
4.4938741e-05
0.012058501
4.7286202e-05
0.013307446
4.3538702e-05
0.013883655
3.5027774e-05
0.013897523
2.3531553e-05
0.013403395
1.1104573e-05
0.012355599
0.010322144
6.4521546e-06
0.0025851412
2.0458907e-05
0.00687832
3.3844571e-05
0.0099694279
4.2142439e-05
0.012050203
4.4135997e-05
0.013305452
4.0357329e-05
0.013887434
3.2182737e-05
0.013905697
2.1392315e-05
0.013414185
9.9731002e-06
0.012367018
0.010332118
5.9202429e-06
0.002579221
1.8847307e-05
0.006865393
3.1240676e-05
0.0099570346
3.8841967e-05
0.012042602
4.0490578e-05
0.013303803
3.6754874e-05
0.013891169
2.9027664e-05
0.013913424
1.906578e-05
0.013424147
8.7646992e-06
0.012377319
0.010340882
5.3526512e-06
0.0025738683
1.7095576e-05
0.00685365
2.8379314e-05
0.0099457508
3.521902e-05
0.012035762
3.6524552e-05
0.013302498
3.28849e-05
0.013894809
2.5686263e-05
0.013920623
1.6638645e-05
0.013433194
7.5232711e-06
0.012386434
0.010348406
4.7760056e-06
0.0025690923
1.5289109e-05
0.0068431369
2.5395907e-05
0.009935644
3.1432336e-05
0.012029726
3.2397143e-05
0.013301533
2.8891577e-05
0.013898314
2.2276464e-05
0.013927238
1.4193645e-05
0.013441277
6.2901344e-06
0.012394338
0.010354696
4.2090845e-06
0.0025648833
1.3491731e-05
0.0068338543
2.2398233e-05
0.0099267375
2.7614799e-05
0.012024509
2.8246549e-05
0.013300901
2.4902818e-05
0.013901658
1.8903803e-05
0.013933237
1.1804514e-05
0.013448377
5.101664e-06
0.012401041
0.010359797
3.6647668e-06
0.0025612185
1.1749656e-05
0.0068257694
1.9468935e-05
0.0099190183
2.3872956e-05
0.012020105
2.4186846e-05
0.013300588
2.1025751e-05
0.013904819
1.5656685e-05
0.013938606
9.532164e-06
0.013454501
3.987028e-06
0.012406586
0.010363784
3.1515731e-06
0.0025580669
1.0095138e-05
0.0068188258
1.6668919e-05
0.0099124445
2.0288504e-05
0.012016485
2.030755e-05
0.013300568
1.7344999e-05
0.013907782
1.2604315e-05
0.013943347
7.4231129e-06
0.013459682
2.9677059e-06
0.012411041
0.010366752
2.6747757e-06
0.0025553921
8.5494767e-06
0.0068129511
1.4040797e-05
0.0099069532
1.6920758e-05
0.012013605
1.667472e-05
0.013300815
1.3922823e-05
0.013910534
9.7964314e-06
0.013947473
5.5092295e-06
0.01346397
2.0572663e-06
0.012414493
0.010368809
2.2372754e-06
0.0025531549
7.1255838e-06
0.0068080628
1.161231e-05
0.0099024664
1.3809836e-05
0.012011408
1.3333486e-05
0.013301291
1.080104e-05
0.013913066
7.2648708e-06
0.013951009
3.8091301e-06
0.013467425
1.2624208e-06
0.01241704
0.010370072
1.8402435e-06
0.0025513146
5.8300408e-06
0.006804073
9.3994567e-06
0.009898897
1.098007e-05
0.012009827
1.0311278e-05
0.01330196
8.0039983e-06
0.013915373
5.0263093e-06
0.013953987
2.3304866e-06
0.013470121
5.8449176e-07
0.012418786
0.010370656
1.4836141e-06
0.002549831
4.6647268e-06
0.0068008919
7.4091242e-06
0.0098961526
8.4430805e-06
0.012008793
7.6209248e-06
0.013302782
5.5414803e-06
0.013917453
3.0849171e-06
0.013956444
1.0731753e-06
0.013472133
3.1277632e-08
0.012419828
0.010370688
1.1663799e-06
0.0025486646
3.6278461e-06
0.0067984305
5.6407964e-06
0.0098941397
6.1997815e-06
0.012008234
5.2626529e-06
0.013303719
3.4108168e-06
0.013919305
1.435692e-06
0.013958419
3.8557232e-08
0.01347353
-4.1214413e-07
0.012420279
0.010370275
8.8689889e-07
0.0025477777
2.7150398e-06
0.0067966023
4.0886471e-06
0.0098927661
4.2433583e-06
0.01200808
3.227986e-06
0.013304734
1.6022612e-06
0.01392093
7.327625e-08
0.013959948
-7.9688652e-07
0.0134744
-7.7081263e-07
0.012420253
0.010369505
6.4314222e-07
0.0025471346
1.9203502e-06
0.0067953251
2.7434902e-06
0.009891943
2.5623216e-06
0.012008261
1.5041275e-06
0.013305793
1.0552818e-07
0.013922329
-1.0306499e-06
0.013961084
-1.4660302e-06
0.013474836
-1.0493262e-06
0.012419836
0.010368455
4.3285284e-07
0.0025467017
1.2368136e-06
0.0067945212
1.5940598e-06
0.0098915857
1.1427689e-06
0.012008712
7.7559479e-08
0.013306858
-1.1097182e-06
0.013923516
-1.9131537e-06
0.013961887
-1.982305e-06
0.013474905
-1.2540267e-06
0.012419108
0.010367201
2.5368482e-07
0.0025464481
6.5710924e-07
0.0067941178
6.2885564e-07
0.009891614
-2.9648157e-08
0.012009371
-1.0815288e-06
0.01330791
-2.0813524e-06
0.013924516
-2.5946334e-06
0.013962401
-2.3610274e-06
0.013474671
-1.3931662e-06
0.01241814
0.010365808
1.0337548e-07
0.0025463447
1.7417886e-07
0.006794047
-1.6567289e-07
0.0098919539
-9.8162782e-07
0.012010187
-2.0084716e-06
0.013308937
-2.8332376e-06
0.013925341
-3.0963402e-06
0.013962664
-2.6187325e-06
0.013474194
-1.4756684e-06
0.012416997
0.010364332
-2.0557214e-08
0.0025463652
-2.2123757e-07
0.0067942476
-8.0950199e-07
0.0098925421
-1.742217e-06
0.012011119
-2.7265964e-06
0.013309921
-3.3891283e-06
0.013926004
-3.4402178e-06
0.013962715
-2.7721628e-06
0.013473526
-1.5103802e-06
0.012415735
0.010362822
-1.2113388e-07
0.0025464864
-5.3997051e-07
0.0067946665
-1.3213942e-06
0.0098933236
-2.3305461e-06
0.012012128
-3.2588131e-06
0.013310849
-3.7730753e-06
0.013926518
-3.6480823e-06
0.01396259
-2.8376296e-06
0.013472715
-1.5057814e-06
0.012414403
0.010361316
-2.0113639e-07
0.0025466875
-7.9074864e-07
0.0067952561
-1.7150091e-06
0.0098942478
-2.7658493e-06
0.012013179
-3.6278902e-06
0.013311711
-4.0085409e-06
0.013926898
-3.7408012e-06
0.013962322
-2.8303935e-06
0.013471805
-1.4695577e-06
0.012413042
0.010359847
-2.6282471e-07
0.0025469503
-9.8099181e-07
0.0067959743
-2.0038598e-06
0.0098952707
-3.0669653e-06
0.012014242
-3.8558908e-06
0.0133125
-4.1179035e-06
0.01392716
-3.737925e-06
0.013961942
-2.7644658e-06
0.013470831
-1.4086894e-06
0.012411687
0.010358438
-3.0832603e-07
0.0025472587
-1.1178664e-06
0.0067967838
-2.2010108e-06
0.0098963539
-3.2519744e-06
0.012015293
-3.9637335e-06
0.013313212
-4.1220511e-06
0.013927319
-3.657347e-06
0.013961478
-2.6523867e-06
0.013469826
-1.3292073e-06
0.012410364
0.010357109
-3.3966608e-07
0.0025475983
-1.2082369e-06
0.0067976524
-2.3189519e-06
0.0098974646
-3.3380204e-06
0.012016312
-3.9710278e-06
0.013313845
-4.0402552e-06
0.013927388
-3.5152888e-06
0.013960953
-2.5053221e-06
0.013468816
-1.2364664e-06
0.012409095
0.010355872
-3.5874719e-07
0.0025479571
-1.2585804e-06
0.0067985522
-2.369426e-06
0.0098985754
-3.3410886e-06
0.012017284
-3.8958076e-06
0.0133144
-3.8899486e-06
0.013927382
-3.3261253e-06
0.013960389
-2.3329322e-06
0.013467823
-1.1348986e-06
0.012407897
0.010354737
-3.6736299e-07
0.0025483245
-1.2749784e-06
0.0067994598
-2.363401e-06
0.0098996638
-3.2759597e-06
0.012018197
-3.7545383e-06
0.013314878
-3.6867902e-06
0.013927314
-3.102558e-06
0.013959805
-2.1436167e-06
0.013466864
-1.0283767e-06
0.012406781
0.010353709
-3.6717348e-07
0.0025486916
-1.2630636e-06
0.0068003557
-2.3109678e-06
0.0099007118
-3.1560944e-06
0.012019042
-3.5619927e-06
0.013315284
-3.4445937e-06
0.013927197
-2.8555566e-06
0.013959216
-1.9444521e-06
0.013465953
-9.1999982e-07
0.012405757
0.010352789
-3.5972171e-07
0.0025490514
-1.2280299e-06
0.006801224
-2.22136e-06
0.0099017051
-2.9936631e-06
0.012019814
-3.3313467e-06
0.013315622
-3.1754749e-06
0.013927041
-2.5945817e-06
0.013958635
-1.741458e-06
0.0134651
-8.1245247e-07
0.012404828
0.010351977
-3.4640789e-07
0.0025493978
-1.1745897e-06
0.0068020522
-2.1028802e-06
0.0099026334
-2.7994759e-06
0.012020511
-3.0741032e-06
0.013315896
-2.8898003e-06
0.013926857
-2.3275331e-06
0.013958072
-1.5394901e-06
0.013464312
-7.0773959e-07
0.012403996
0.010351269
-3.2851072e-07
0.0025497263
-1.1070014e-06
0.0068028307
-1.9629554e-06
0.0099034893
-2.5830642e-06
0.012021131
-2.800239e-06
0.013316114
-2.5963893e-06
0.013926653
-2.0609872e-06
0.013957537
-1.3425122e-06
0.013463594
-6.0753233e-07
0.012403261
0.010350661
-3.0716697e-07
0.0025500334
-1.0290445e-06
0.0068035526
-1.8081054e-06
0.0099042684
-2.3526727e-06
0.012021675
-2.5182097e-06
0.013316279
-2.3025298e-06
0.013926437
-1.8002034e-06
0.013957035
-1.1535503e-06
0.013462947
-5.1295516e-07
0.012402621
0.010350148
-2.8339603e-07
0.0025503168
-9.4406414e-07
0.0068042132
-1.6440284e-06
0.0099049683
-2.1153848e-06
0.012022147
-2.2351475e-06
0.013316399
-2.0142312e-06
0.013926216
-1.5494029e-06
0.01395657
-9.7495472e-07
0.013462372
-4.2491786e-07
0.012402071
0.010349723
-2.5808301e-07
0.0025505749
-8.5495901e-07
0.0068048101
-1.4756016e-06
0.009905589
-1.8771633e-06
0.012022548
-1.9569111e-06
0.013316479
-1.7362769e-06
0.013925996
-1.3117982e-06
0.013956145
-8.0839463e-07
0.013461869
-3.4393369e-07
0.012401606
0.010349379
-2.3200161e-07
0.0025508069
-7.6423043e-07
0.0068053423
-1.3069749e-06
0.0099061317
-1.6429856e-06
0.012022884
-1.6882852e-06
0.013316524
-1.472467e-06
0.01392578
-1.0898577e-06
0.013955763
-6.551016e-07
0.013461434
-2.704051e-07
0.012401221
0.010349109
-2.0580512e-07
0.0025510127
-6.7398122e-07
0.0068058105
-1.1415842e-06
0.0099065993
-1.4168838e-06
0.01202316
-1.4330217e-06
0.01331654
-1.2256525e-06
0.013925573
-8.8530655e-07
0.013955422
-5.1582639e-07
0.013461065
-2.0448043e-07
0.01240091
0.010348905
-1.8004398e-07
0.0025511928
-5.8595682e-07
0.0068062164
-9.822275e-07
0.0099069956
-1.2020498e-06
0.012023379
-1.1939863e-06
0.013316532
-9.9788377e-07
0.013925376
-6.9926784e-07
0.013955124
-3.9097115e-07
0.013460756
-1.4621669e-07
0.012400665
0.010348758
-1.5515876e-07
0.0025513479
-5.0154396e-07
0.0068065628
-8.3106816e-07
0.0099073251
-1.0008507e-06
0.012023549
-9.7314605e-07
0.013316504
-7.9039046e-07
0.013925194
-5.3221027e-07
0.013954866
-2.8048316e-07
0.013460505
-9.5407407e-08
0.01240048
0.010348663
-1.3150031e-07
0.0025514794
-4.2181595e-07
0.0068068531
-6.8972286e-07
0.009907593
-8.1494267e-07
0.012023674
-7.71729e-07
0.013316461
-6.0373675e-07
0.013925026
-3.8409204e-07
0.013954646
-1.8400548e-07
0.013460305
-5.1756534e-08
0.012400348
0.010348611
-1.0932554e-07
0.0025515887
-3.475473e-07
0.0068070914
-5.5928611e-07
0.0099078048
-6.4532025e-07
0.01202376
-5.9026626e-07
0.013316406
-4.3785851e-07
0.013924873
-2.5437691e-07
0.013954462
-1.0078277e-07
0.013460151
-1.4266038e-08
0.012400261
0.010348597
-8.8826915e-08
0.0025516776
-2.7928229e-07
0.0068072818
-4.4046956e-07
0.0099079659
-4.9251813e-07
0.012023813
-4.2885638e-07
0.013316342
-2.9236011e-07
0.013924737
-1.4227628e-07
0.013954312
-2.9643871e-08
0.013460038
1.7463573e-08
0.012400214
0.010348614
-7.0126149e-08
0.0025517477
-2.1735463e-07
0.006807429
-3.3363815e-07
0.0099080822
-3.5665931e-07
0.012023836
-2.8719614e-07
0.013316273
-1.6647366e-07
0.013924616
-4.6533913e-08
0.013954192
3.0190466e-08
0.013459962
4.3062879e-08
0.012400201
0.010348657
-5.3294913e-08
0.002551801
-1.6192398e-07
0.0068075377
-2.3887442e-07
0.0099081592
-2.3752994e-07
0.012023834
-1.6463114e-07
0.0133162
-5.9019513e-08
0.01392451
3.3858289e-08
0.0139541
7.8685016e-08
0.013459917
6.2819731e-08
0.012400217
0.01034872
-3.8349598e-08
0.0025518393
-1.1298605e-07
0.0068076123
-1.559885e-07
0.0099082022
-1.3456428e-07
0.012023813
-6.0059761e-08
0.013316126
3.1186108e-08
0.013924419
9.9231069e-08
0.013954031
1.1649846e-07
0.0134599
7.7567936e-08
0.012400256
0.010348798
-2.5267425e-08
0.0025518646
-7.0400239e-08
0.0068076574
-8.4549982e-08
0.0099082163
-4.683257e-08
0.012023775
2.7659177e-08
0.013316051
1.0467446e-07
0.013924342
1.504023e-07
0.013953986
1.4482177e-07
0.013459905
8.7924812e-08
0.012400313
0.010348886
-1.3979313e-08
0.0025518786
-3.3877844e-08
0.0068076773
-2.3830715e-08
0.0099082063
2.6640785e-08
0.012023725
9.9189916e-08
0.013315978
1.6241772e-07
0.013924279
1.8894425e-07
0.013953959
1.648403e-07
0.013459929
9.4507516e-08
0.012400383
0.01034898
-4.3773955e-09
0.002551883
-2.9993598e-09
0.0068076759
2.6805966e-08
0.0099081764
8.6471234e-08
0.012023665
1.5552882e-07
0.013315909
2.0615414e-07
0.013924228
2.164303e-07
0.013953949
1.777042e-07
0.013459968
9.7879328e-08
0.012400463
0.010349078
3.6407552e-09
0.0025518793
2.25326e-08
0.006807657
6.7841456e-08
0.0099081311
1.3360861e-07
0.012023599
1.9838242e-07
0.013315845
2.3765326e-07
0.013924189
2.3443879e-07
0.013953952
1.8456676e-07
0.013460018
9.8632198e-08
0.012400549
0.010349177
1.0157081e-08
0.0025518692
4.2998879e-08
0.0068076242
1.0003255e-07
0.0099080741
1.6944571e-07
0.01202353
2.2939365e-07
0.013315785
2.5858905e-07
0.01392416
2.4442562e-07
0.013953966
1.8647179e-07
0.013460076
9.7281877e-08
0.012400638
0.010349274
1.529068e-08
0.0025518539
5.8883394e-08
0.0068075806
1.2434651e-07
0.0099080086
1.9533429e-07
0.012023459
2.5012884e-07
0.01331573
2.7051307e-07
0.013924139
2.4771224e-07
0.013953989
1.8434285e-07
0.013460139
9.427754e-08
0.012400728
0.010349368
1.9181606e-08
0.0025518347
7.0683332e-08
0.0068075291
1.4170824e-07
0.0099079376
2.1254158e-07
0.012023388
2.6201799e-07
0.01331568
2.7480456e-07
0.013924127
2.4543472e-07
0.013954018
1.7894782e-07
0.013460206
8.9989076e-08
0.012400817
0.010349458
2.1966571e-08
0.0025518127
7.8875868e-08
0.0068074722
1.5298242e-07
0.0099078635
2.2222714e-07
0.012023319
2.66337e-07
0.013315636
2.7265921e-07
0.01392412
2.3853621e-07
0.013954053
1.7088178e-07
0.013460273
8.4649212e-08
0.012400903
0.010349543
2.3785857e-08
0.0025517889
8.3928951e-08
0.006807412
1.5900483e-07
0.0099077884
2.2549591e-07
0.012023252
2.6428845e-07
0.013315597
2.6518177e-07
0.013924119
2.2788279e-07
0.01395409
1.6069194e-07
0.01346034
7.8514676e-08
0.012400986
0.010349622
2.4771108e-08
0.0025517642
8.6287854e-08
0.0068073505
1.6056265e-07
0.0099077141
2.2338064e-07
0.012023189
2.5697891e-07
0.013315564
2.5338688e-07
0.013924123
2.1425339e-07
0.013954129
1.4885045e-07
0.013460406
7.1744779e-08
0.012401063
0.010349693
2.505655e-08
0.0025517391
8.6395813e-08
0.0068072892
1.5843707e-07
0.0099076421
2.1690612e-07
0.012023131
2.455211e-07
0.013315535
2.3830738e-07
0.01392413
1.9847494e-07
0.013954169
1.3590364e-07
0.013460468
6.4609319e-08
0.012401134
0.010349758
2.4765908e-08
0.0025517143
8.4670039e-08
0.0068072293
1.5336399e-07
0.0099075734
2.0703715e-07
0.012023077
2.3096118e-07
0.013315511
2.2091996e-07
0.01392414
1.8133515e-07
0.013954208
1.2238543e-07
0.013460527
5.7346294e-08
0.012401199
0.010349815
2.4017023e-08
0.0025516903
8.1505388e-08
0.0068071718
1.4603882e-07
0.0099075089
1.9468353e-07
0.012023029
2.1428694e-07
0.013315492
2.0215165e-07
0.013924152
1.6359101e-07
0.013954247
1.0881693e-07
0.013460582
5.0237151e-08
0.012401258
0.010349865
2.29118e-08
0.0025516674
7.7248258e-08
0.0068071174
1.3706699e-07
0.009907449
1.8062495e-07
0.012022985
1.9632447e-07
0.013315476
1.8275712e-07
0.013924166
1.4584538e-07
0.013954284
9.5607848e-08
0.013460632
4.3464609e-08
0.01240131
0.010349909
2.1539842e-08
0.0025516459
7.2194635e-08
0.0068070668
1.2695596e-07
0.0099073943
1.6549853e-07
0.012022946
1.7772794e-07
0.013315464
1.633123e-07
0.01392418
1.2853685e-07
0.013954319
8.3037063e-08
0.013460678
3.7173701e-08
0.012401356
0.010349946
1.997212e-08
0.0025516259
6.6582823e-08
0.0068070202
1.1610228e-07
0.0099073447
1.4978069e-07
0.012022913
1.5895488e-07
0.013315455
1.4417193e-07
0.013924195
1.1188222e-07
0.013954351
7.1195341e-08
0.013460719
3.1362178e-08
0.012401396
0.010349977
1.8272362e-08
0.0025516076
6.061009e-08
0.0068069778
1.0482219e-07
0.0099073005
1.3383215e-07
0.012022884
1.4032878e-07
0.013315448
1.2556412e-07
0.01392421
9.5987755e-08
0.013954381
6.0088857e-08
0.013460754
2.6018701e-08
0.01240143
0.010350003
1.649016e-08
0.0025515911
5.4433016e-08
0.0068069399
9.336174e-08
0.0099072616
1.1792536e-07
0.012022859
1.2207218e-07
0.013315444
1.0761527e-07
0.013924224
8.0872865e-08
0.013954407
4.9658974e-08
0.013460786
2.104114e-08
0.012401458
0.010350025
1.4675328e-08
0.0025515765
4.8198544e-08
0.0068069064
8.1948814e-08
0.0099072279
1.0231407e-07
0.012022839
1.0440998e-07
0.013315442
9.0477809e-08
0.013924238
6.6608736e-08
0.013954431
3.9903658e-08
0.013460812
1.6426952e-08
0.012401482
0.010350041
1.2869384e-08
0.0025515636
4.2036863e-08
0.0068068772
7.0792344e-08
0.0099071991
8.7243945e-08
0.012022822
8.757152e-08
0.013315442
7.4331437e-08
0.013924252
5.3305644e-08
0.013954452
3.0876811e-08
0.013460835
1.2159078e-08
0.0124015
0.010350053
1.1113461e-08
0.0025515525
3.6075434e-08
0.0068068523
6.0102181e-08
0.0099071751
7.2967329e-08
0.012022809
7.1813795e-08
0.013315443
5.9401834e-08
0.013924264
4.1142686e-08
0.01395447
2.2701752e-08
0.013460853
8.3317097e-09
0.012401515
0.010350061
9.4392106e-09
0.002551543
3.0418566e-08
0.0068068313
5.0050797e-08
0.0099071555
5.9699096e-08
0.0120228
5.7354696e-08
0.013315445
4.5884625e-08
0.013924275
3.0281282e-08
0.013954486
1.5501215e-08
0.013460868
4.9947678e-09
0.012401525
0.010350066
7.8671261e-09
0.0025515352
2.5140653e-08
0.006806814
4.0766905e-08
0.0099071398
4.7594446e-08
0.012022793
4.4348106e-08
0.013315448
3.3912824e-08
0.013924286
2.0826071e-08
0.013954499
9.3464294e-09
0.013460879
2.2028789e-09
0.012401532
0.010350069
6.4222987e-09
0.0025515287
2.0305699e-08
0.0068068001
3.2368219e-08
0.0099071278
3.6844517e-08
0.012022789
3.3058708e-08
0.013315452
2.3809545e-08
0.013924295
1.311502e-08
0.01395451
4.5448974e-09
0.013460888
1.5560842e-10
0.012401537
0.010350069
2.897584e-09
9.1261208e-09
1.4428632e-08
1.6199006e-08
1.4254686e-08
9.9198343e-09
5.1428442e-09
1.4980912e-09
-1.0565455e-10
)
;

boundaryField
{
    water_inlet
    {
        type            calculated;
        value           nonuniform List<scalar> 10(-0.0021750989 -0.0058428937 -0.0086267772 -0.010688211 -0.012161792 -0.013159549 -0.01377456 -0.014084001 -0.014151716 -0.014030398);
    }
    water_outlet
    {
        type            calculated;
        value           nonuniform List<scalar> 10(0.0025515259 0.0068067939 0.0099071225 0.012022787 0.013315454 0.0139243 0.013954515 0.013460892 0.012401539 0.010350069);
    }
    water_wedge1
    {
        type            wedge;
        value           nonuniform List<scalar> 
1000
(
-1.129595e-13
-1.4267608e-13
-1.1216292e-13
-1.0631528e-13
-9.9353892e-14
-9.3387559e-14
-8.8693617e-14
-8.4955619e-14
-8.1973792e-14
-7.9488844e-14
-7.7284634e-14
-7.5238955e-14
-7.3264302e-14
-7.127888e-14
-6.918656e-14
-6.6853589e-14
-6.4128914e-14
-6.0818084e-14
-5.6670282e-14
-5.1410694e-14
-4.479426e-14
-3.6656539e-14
-2.7081631e-14
-1.6558361e-14
-5.8631391e-15
4.0618845e-15
1.2375121e-14
1.8673285e-14
2.2903099e-14
2.5297371e-14
2.622217e-14
2.6009781e-14
2.5019955e-14
2.3508627e-14
2.1688894e-14
1.9703308e-14
1.7628504e-14
1.5587844e-14
1.3611849e-14
1.173187e-14
9.9924546e-15
8.3916091e-15
6.9303146e-15
5.6116949e-15
4.4435682e-15
3.4059069e-15
2.4952289e-15
1.7143764e-15
1.0446728e-15
4.8137533e-16
1.127735e-17
-3.7000507e-16
-6.7291301e-16
-9.0760494e-16
-1.0873626e-15
-1.2083002e-15
-1.284957e-15
-1.3269299e-15
-1.3325199e-15
-1.3095669e-15
-1.2667255e-15
-1.2097795e-15
-1.1300356e-15
-1.0439545e-15
-9.5501214e-16
-8.6289592e-16
-7.6912055e-16
-6.7490691e-16
-5.8130513e-16
-4.9696233e-16
-4.1627026e-16
-3.4215638e-16
-2.7368708e-16
-2.1051975e-16
-1.5570862e-16
-1.016026e-16
-5.6730354e-17
-2.7623516e-17
-5.8446457e-19
2.6878946e-17
4.6090957e-17
6.111421e-17
7.4360961e-17
8.3410909e-17
8.6421267e-17
8.723828e-17
8.1661914e-17
8.1340331e-17
7.9692194e-17
7.4887389e-17
6.8531209e-17
6.5741752e-17
5.7510523e-17
4.6564475e-17
4.3177981e-17
3.9487594e-17
3.6722675e-17
2.7831092e-17
1.628308e-17
3.1681961e-18
-6.8081359e-13
-1.0335444e-12
-8.3928818e-13
-7.9752817e-13
-7.493993e-13
-7.0313821e-13
-6.6536398e-13
-6.3522773e-13
-6.1093653e-13
-5.9052868e-13
-5.7244882e-13
-5.5560598e-13
-5.3912638e-13
-5.2220025e-13
-5.0397565e-13
-4.8343108e-13
-4.5934189e-13
-4.301869e-13
-3.9436676e-13
-3.5055597e-13
-2.9814088e-13
-2.3765667e-13
-1.7103665e-13
-1.0155884e-13
-3.337342e-14
2.8947167e-14
8.1489502e-14
1.2215581e-13
1.5064813e-13
1.6798419e-13
1.7589593e-13
1.7634971e-13
1.7126156e-13
1.6227067e-13
1.5073544e-13
1.3769586e-13
1.2392662e-13
1.1003606e-13
9.6437436e-14
8.3436735e-14
7.1223642e-14
5.9901207e-14
4.9547075e-14
4.0191456e-14
3.1829538e-14
2.4422736e-14
1.7932615e-14
1.2310243e-14
7.508055e-15
3.4697657e-15
1.1724366e-16
-2.6156823e-15
-4.8031686e-15
-6.5030605e-15
-7.7678426e-15
-8.6559113e-15
-9.2109873e-15
-9.4903086e-15
-9.5331014e-15
-9.3811401e-15
-9.0657359e-15
-8.6201618e-15
-8.0862239e-15
-7.4786581e-15
-6.8296445e-15
-6.1607708e-15
-5.4783008e-15
-4.8070107e-15
-4.1576976e-15
-3.5415043e-15
-2.9604757e-15
-2.4164177e-15
-1.921929e-15
-1.4738925e-15
-1.0799415e-15
-7.3096662e-16
-4.2541638e-16
-1.7008268e-16
4.3120573e-17
2.2100373e-16
3.6213673e-16
4.7113476e-16
5.455389e-16
5.9316879e-16
6.3074416e-16
6.4288281e-16
6.3570606e-16
6.1696086e-16
5.9304165e-16
5.6249296e-16
5.1725138e-16
4.7635125e-16
4.3364361e-16
3.8346766e-16
3.3332864e-16
2.893345e-16
2.5075384e-16
2.0813646e-16
1.6694114e-16
9.3636732e-17
3.1339118e-12
4.8023018e-12
3.907234e-12
3.7113871e-12
3.4900562e-12
3.2689361e-12
3.0860204e-12
2.9387808e-12
2.817615e-12
2.7124755e-12
2.6152689e-12
2.5197149e-12
2.4205053e-12
2.3123543e-12
2.1894922e-12
2.046114e-12
1.8774947e-12
1.681101e-12
1.4574249e-12
1.2105502e-12
9.4809526e-13
6.8017677e-13
4.1761337e-13
1.7021565e-13
-5.3283751e-14
-2.4553147e-13
-4.0217124e-13
-5.2206152e-13
-6.0639903e-13
-6.5809818e-13
-6.8131394e-13
-6.8087732e-13
-6.6175805e-13
-6.2866521e-13
-5.857744e-13
-5.3662892e-13
-4.8411484e-13
-4.3049108e-13
-3.7748491e-13
-3.2635867e-13