/*--------------------------------*- C++ -*----------------------------------*\
| =========                 |                                                 |
| \\      /  F ield         | OpenFOAM: The Open Source CFD Toolbox           |
|  \\    /   O peration     | Version:  2506                                  |
|   \\  /    A nd           | Website:  www.openfoam.com                      |
|    \\/     M anipulation  |                                                 |
\*---------------------------------------------------------------------------*/
FoamFile
{
    version     2.0;
    format      ascii;
    arch        "LSB;label=32;scalar=64";
    class       volScalarField;
    location    "5000/water";
    object      T;
}
// * * * * * * * * * * * * * * * * * * * * * * * * * * * * * * * * * * * * * //

dimensions      [0 0 0 1 0 0 0];

internalField   nonuniform List<scalar> 
1000
(
333.15
333.15
333.15
333.14999
333.14998
333.14991
333.14966
333.14882
333.14553
333.13086
333.15
333.15
333.14999
333.14998
333.14992
333.14971
333.14908
333.14712
333.14017
333.11776
333.15
333.15
333.14999
333.14995
333.14981
333.14941
333.14828
333.14495
333.13442
333.10791
333.15
333.14999
333.14997
333.14989
333.14966
333.149
333.14725
333.14232
333.12873
333.10034
333.14999
333.14998
333.14995
333.14982
333.14945
333.14848
333.14595
333.13923
333.12343
333.09464
333.14999
333.14997
333.14991
333.14972
333.14918
333.14781
333.14431
333.13576
333.11874
333.09053
333.14998
333.14996
333.14986
333.14958
333.14883
333.14695
333.1423
333.13211
333.11477
333.08762
333.14997
333.14993
333.1498
333.1494
333.14838
333.14585
333.13993
333.12857
333.11149
333.08557
333.14996
333.1499
333.14971
333.14918
333.14781
333.14448
333.13732
333.12531
333.10882
333.0841
333.14994
333.14986
333.1496
333.14888
333.14706
333.14282
333.13463
333.12243
333.10662
333.08303
333.14991
333.1498
333.14945
333.1485
333.14612
333.14092
333.132
333.11992
333.1048
333.08222
333.14987
333.14973
333.14926
333.148
333.14496
333.13887
333.12954
333.11775
333.10327
333.08161
333.14982
333.14963
333.14901
333.14736
333.14358
333.13675
333.12729
333.11586
333.10199
333.08113
333.14976
333.14951
333.14868
333.14655
333.14202
333.13467
333.12524
333.11421
333.10088
333.08076
333.14968
333.14934
333.14825
333.14556
333.14033
333.13267
333.1234
333.11275
333.09993
333.08047
333.14957
333.14912
333.1477
333.1444
333.13859
333.13079
333.12173
333.11147
333.0991
333.08025
333.14942
333.14882
333.147
333.14308
333.13684
333.12903
333.12022
333.11031
333.09837
333.08007
333.14922
333.14843
333.14615
333.14164
333.13513
333.1274
333.11884
333.10928
333.09771
333.07993
333.14894
333.14793
333.14513
333.14014
333.13348
333.12588
333.11759
333.10834
333.09713
333.07982
333.14858
333.14728
333.14397
333.1386
333.13191
333.12447
333.11643
333.10748
333.0966
333.07973
333.14809
333.14647
333.14268
333.13707
333.13041
333.12316
333.11537
333.10669
333.09612
333.07966
333.14744
333.1455
333.14131
333.13555
333.12898
333.12193
333.11438
333.10597
333.09567
333.07959
333.1466
333.14436
333.13987
333.13407
333.12762
333.12077
333.11346
333.10529
333.09526
333.07952
333.14556
333.14307
333.13841
333.13263
333.12634
333.11969
333.11259
333.10465
333.09486
333.07946
333.1443
333.14166
333.13692
333.13124
333.12511
333.11866
333.11177
333.10404
333.09448
333.07938
333.14285
333.14015
333.13544
333.12988
333.12393
333.11768
333.11099
333.10346
333.09412
333.07931
333.14124
333.13856
333.13396
333.12857
333.1228
333.11674
333.11024
333.1029
333.09376
333.07921
333.13951
333.13693
333.13249
333.12728
333.12171
333.11584
333.10952
333.10236
333.0934
333.07911
333.13772
333.13527
333.13103
333.12603
333.12065
333.11496
333.10882
333.10182
333.09305
333.07899
333.1359
333.13361
333.12959
333.1248
333.11962
333.11411
333.10813
333.10129
333.09268
333.07884
333.1341
333.13197
333.12817
333.1236
333.11861
333.11327
333.10745
333.10076
333.09231
333.07867
333.13233
333.13035
333.12677
333.12241
333.11761
333.11244
333.10677
333.10023
333.09192
333.07848
333.1306
333.12877
333.12541
333.12125
333.11664
333.11162
333.10609
333.09969
333.09152
333.07825
333.12894
333.12723
333.12407
333.12011
333.11567
333.11081
333.10542
333.09914
333.0911
333.078
333.12734
333.12575
333.12277
333.119
333.11472
333.11
333.10474
333.09858
333.09066
333.07771
333.1258
333.12432
333.1215
333.1179
333.11378
333.1092
333.10405
333.098
333.09019
333.07739
333.12433
333.12294
333.12028
333.11683
333.11285
333.1084
333.10336
333.09742
333.08971
333.07704
333.12292
333.12161
333.11908
333.11578
333.11193
333.10759
333.10267
333.09682
333.08921
333.07666
333.12157
333.12033
333.11792
333.11475
333.11102
333.1068
333.10196
333.0962
333.08868
333.07625
333.12028
333.1191
333.1168
333.11374
333.11013
333.106
333.10126
333.09558
333.08814
333.0758
333.11904
333.11791
333.11571
333.11276
333.10924
333.1052
333.10054
333.09494
333.08757
333.07534
333.11784
333.11677
333.11464
333.11179
333.10836
333.10441
333.09982
333.09428
333.08699
333.07484
333.11669
333.11566
333.11361
333.11084
333.1075
333.10361
333.09909
333.09362
333.08639
333.07432
333.11558
333.11458
333.1126
333.10991
333.10664
333.10282
333.09836
333.09295
333.08578
333.07378
333.11451
333.11354
333.11162
333.10899
333.10579
333.10203
333.09763
333.09227
333.08515
333.07323
333.11347
333.11253
333.11066
333.10809
333.10494
333.10124
333.09689
333.09157
333.08451
333.07265
333.11246
333.11154
333.10972
333.1072
333.10411
333.10046
333.09615
333.09088
333.08386
333.07206
333.11147
333.11058
333.1088
333.10632
333.10328
333.09967
333.0954
333.09017
333.08319
333.07145
333.11051
333.10964
333.10789
333.10546
333.10245
333.09888
333.09466
333.08946
333.08252
333.07083
333.10957
333.10872
333.107
333.1046
333.10163
333.0981
333.09391
333.08875
333.08184
333.07019
333.10865
333.10781
333.10612
333.10376
333.10082
333.09732
333.09315
333.08802
333.08115
333.06955
333.10775
333.10692
333.10525
333.10292
333.10001
333.09654
333.0924
333.0873
333.08046
333.06889
333.10686
333.10605
333.1044
333.10209
333.0992
333.09576
333.09165
333.08657
333.07976
333.06823
333.10599
333.10518
333.10355
333.10126
333.0984
333.09498
333.09089
333.08584
333.07906
333.06755
333.10513
333.10433
333.10271
333.10044
333.0976
333.0942
333.09014
333.08511
333.07835
333.06687
333.10428
333.10349
333.10188
333.09963
333.09681
333.09343
333.08938
333.08437
333.07763
333.06618
333.10344
333.10265
333.10106
333.09882
333.09602
333.09265
333.08862
333.08363
333.07691
333.06549
333.1026
333.10182
333.10024
333.09802
333.09523
333.09188
333.08787
333.08289
333.07619
333.06479
333.10178
333.101
333.09943
333.09722
333.09444
333.09111
333.08711
333.08215
333.07546
333.06408
333.10096
333.10019
333.09862
333.09642
333.09366
333.09033
333.08635
333.08141
333.07473
333.06336
333.10014
333.09938
333.09782
333.09563
333.09287
333.08956
333.08559
333.08066
333.074
333.06264
333.09933
333.09857
333.09702
333.09483
333.09209
333.08879
333.08483
333.07991
333.07326
333.06192
333.09853
333.09777
333.09622
333.09404
333.09131
333.08802
333.08407
333.07916
333.07253
333.06119
333.09773
333.09697
333.09543
333.09326
333.09053
333.08725
333.08331
333.07841
333.07178
333.06045
333.09693
333.09617
333.09464
333.09247
333.08975
333.08648
333.08255
333.07766
333.07104
333.05971
333.09613
333.09538
333.09385
333.09169
333.08898
333.08571
333.08179
333.0769
333.07029
333.05896
333.09534
333.09459
333.09306
333.09091
333.0882
333.08494
333.08103
333.07615
333.06954
333.05821
333.09455
333.0938
333.09227
333.09013
333.08743
333.08417
333.08026
333.07539
333.06878
333.05745
333.09376
333.09301
333.09149
333.08935
333.08665
333.08341
333.0795
333.07463
333.06802
333.05669
333.09297
333.09223
333.09071
333.08857
333.08588
333.08264
333.07873
333.07387
333.06726
333.05591
333.09219
333.09144
333.08993
333.08779
333.0851
333.08187
333.07797
333.0731
333.06649
333.05514
333.0914
333.09066
333.08915
333.08701
333.08433
333.08109
333.0772
333.07233
333.06572
333.05435
333.09062
333.08988
333.08837
333.08624
333.08356
333.08032
333.07643
333.07156
333.06494
333.05356
333.08984
333.0891
333.08759
333.08546
333.08278
333.07955
333.07565
333.07079
333.06416
333.05276
333.08906
333.08832
333.08681
333.08468
333.08201
333.07878
333.07488
333.07001
333.06338
333.05196
333.08828
333.08754
333.08603
333.0839
333.08123
333.078
333.0741
333.06923
333.06259
333.05114
333.0875
333.08676
333.08525
333.08313
333.08045
333.07722
333.07332
333.06845
333.06179
333.05032
333.08672
333.08598
333.08447
333.08235
333.07967
333.07644
333.07254
333.06766
333.06099
333.04949
333.08594
333.0852
333.08369
333.08157
333.0789
333.07566
333.07176
333.06687
333.06019
333.04865
333.08516
333.08442
333.08291
333.08079
333.07812
333.07488
333.07097
333.06607
333.05937
333.0478
333.08438
333.08364
333.08213
333.08001
333.07733
333.0741
333.07018
333.06527
333.05855
333.04693
333.0836
333.08286
333.08135
333.07923
333.07655
333.07331
333.06938
333.06446
333.05772
333.04606
333.08282
333.08208
333.08057
333.07844
333.07576
333.07252
333.06858
333.06365
333.05689
333.04517
333.08203
333.08129
333.07979
333.07766
333.07497
333.07172
333.06778
333.06283
333.05604
333.04428
333.08125
333.08051
333.079
333.07687
333.07418
333.07092
333.06697
333.062
333.05519
333.04336
333.08047
333.07973
333.07822
333.07608
333.07339
333.07012
333.06616
333.06117
333.05433
333.04244
333.07969
333.07894
333.07743
333.07529
333.07259
333.06932
333.06534
333.06033
333.05345
333.04149
333.0789
333.07816
333.07664
333.0745
333.07179
333.0685
333.06451
333.05948
333.05257
333.04053
333.07811
333.07737
333.07585
333.0737
333.07099
333.06769
333.06368
333.05862
333.05167
333.03956
333.07732
333.07658
333.07506
333.0729
333.07018
333.06687
333.06284
333.05776
333.05076
333.03856
333.07653
333.07579
333.07426
333.0721
333.06937
333.06604
333.06199
333.05688
333.04984
333.03754
333.07574
333.07499
333.07346
333.07129
333.06855
333.06521
333.06114
333.056
333.0489
333.03649
333.07494
333.07419
333.07266
333.07048
333.06772
333.06437
333.06027
333.0551
333.04794
333.03542
333.07415
333.07339
333.07185
333.06967
333.06689
333.06352
333.0594
333.05418
333.04697
333.03432
333.07334
333.07259
333.07104
333.06884
333.06606
333.06266
333.05852
333.05326
333.04598
333.03319
333.07254
333.07178
333.07022
333.06802
333.06522
333.0618
333.05762
333.05231
333.04496
333.03201
333.07173
333.07097
333.0694
333.06718
333.06437
333.06092
333.05671
333.05135
333.04391
333.03079
333.07092
333.07015
333.06858
333.06634
333.06351
333.06004
333.05578
333.05037
333.04283
333.0295
333.0701
333.06933
333.06774
333.0655
333.06264
333.05914
333.05484
333.04936
333.0417
333.02811
333.06928
333.0685
333.06691
333.06464
333.06176
333.05822
333.05387
333.0483
333.0405
333.02654
)
;

boundaryField
{
    water_inlet
    {
        type            fixedValue;
        value           uniform 333.15;
    }
    water_outlet
    {
        type            zeroGradient;
    }
    water_wedge1
    {
        type            wedge;
    }
    water_wedge2
    {
        type            wedge;
    }
    water_to_rock
    {
        type            compressible::turbulentTemperatureRadCoupledMixed;
        refValue        nonuniform List<scalar> 
100
(
315.05134
319.29827
321.14674
322.2459
323.01595
323.60665
324.08556
324.48819
324.83531
325.14003
325.41116
325.6549
325.87575
326.0771
326.26155
326.43116
326.58758
326.73217
326.86606
326.99023
327.10551
327.21262
327.31221
327.40485
327.49106
327.57129
327.64598
327.7155
327.78022
327.84045
327.89649
327.94863
327.99711
328.04217
328.08403
328.12291
328.15898
328.19244
328.22343
328.25212
328.27864
328.30314
328.32573
328.34652
328.36563
328.38314
328.39914
328.41372
328.42695
328.4389
328.44963
328.45919
328.46763
328.475
328.48134
328.48669
328.49106
328.49448
328.49698
328.49857
328.49926
328.49906
328.49796
328.49598
328.49309
328.4893
328.48458
328.47892
328.47228
328.46465
328.45599
328.44626
328.43541
328.4234
328.41017
328.39565
328.37979
328.36249
328.34368
328.32327
328.30114
328.27719
328.25129
328.22329
328.19303
328.16034
328.125
328.08677
328.04536
328.00044
327.95159
327.89826
327.83979
327.77522
327.70322
327.62175
327.52739
327.41345
327.26357
327.02074
)
;
        refGradient     uniform 0;
        valueFraction   nonuniform List<scalar> 
100
(
0.015817679
0.014384089
0.014368103
0.014731052
0.015120369
0.015402092
0.015559942
0.015630419
0.015653898
0.01565617
0.015649644
0.015639108
0.015626013
0.015610674
0.01559317
0.015573625
0.015552347
0.015529679
0.015505856
0.015481073
0.015455537
0.015429472
0.015403102
0.015376657
0.015350365
0.015324464
0.015299212
0.015274887
0.015251786
0.01523021
0.01521044
0.015192713
0.015177203
0.015164005
0.015153132
0.015144517
0.015138026
0.015133474
0.015130639
0.015129285
0.015129168
0.015130057
0.015131734
0.015134004
0.01513671
0.015139717
0.015142892
0.015146124
0.015149323
0.015152421
0.015155366
0.015158122
0.015160663
0.015162976
0.015165054
0.015166896
0.015168509
0.0151699
0.015171082
0.015172068
0.015172875
0.015173518
0.015174013
0.015174377
0.015174626
0.015174775
0.015174839
0.015174832
0.015174767
0.015174655
0.015174507
0.015174333
0.015174142
0.01517394
0.015173734
0.015173529
0.015173327
0.015173133
0.015172949
0.015172777
0.015172618
0.015172472
0.015172341
0.015172225
0.015172122
0.015172034
0.01517196
0.015171897
0.015171846
0.015171805
0.015171774
0.01517175
0.015171733
0.015171723
0.015171718
0.015171719
0.015171723
0.01517173
0.01517174
0.015171751
)
;
        source          uniform 0;
        value           nonuniform List<scalar> 
100
(
332.84488
332.91898
332.93605
332.94044
332.94225
332.94446
332.94755
332.95119
332.95498
332.95867
332.96218
332.96546
332.96854
332.97143
332.97415
332.9767
332.9791
332.98136
332.98347
332.98546
332.98732
332.98906
332.99069
332.9922
332.9936
332.9949
332.99609
332.99718
332.99817
332.99906
332.99985
333.00054
333.00113
333.00163
333.00204
333.00236
333.00259
333.00274
333.00282
333.00282
333.00277
333.00265
333.00247
333.00224
333.00197
333.00165
333.00129
333.0009
333.00047
333.00002
332.99953
332.99902
332.99848
332.99792
332.99733
332.99673
332.9961
332.99546
332.99479
332.99411
332.99341
332.99268
332.99195
332.99119
332.99041
332.98962
332.98881
332.98797
332.98712
332.98624
332.98535
332.98443
332.98349
332.98252
332.98152
332.9805
332.97945
332.97837
332.97726
332.97611
332.97493
332.9737
332.97244
332.97113
332.96977
332.96837
332.9669
332.96538
332.96378
332.96212
332.96037
332.95854
332.9566
332.95453
332.95232
332.94993
332.94729
332.94429
332.94066
332.93542
)
;
        logInterval     -1;
        writePrecision  8;
        updateHeader    1;
        writeToFile     0;
        useUserTime     1;
        kappaMethod     fluidThermo;
    }
}


// ************************************************************************* //
