/*--------------------------------*- C++ -*----------------------------------*\
| =========                 |                                                 |
| \\      /  F ield         | OpenFOAM: The Open Source CFD Toolbox           |
|  \\    /   O peration     | Version:  2506                                  |
|   \\  /    A nd           | Website:  www.openfoam.com                      |
|    \\/     M anipulation  |                                                 |
\*---------------------------------------------------------------------------*/
FoamFile
{
    version     2.0;
    format      ascii;
    arch        "LSB;label=32;scalar=64";
    class       volVectorField;
    location    "5000/water";
    object      U;
}
// * * * * * * * * * * * * * * * * * * * * * * * * * * * * * * * * * * * * * //

dimensions      [0 1 -1 0 0 0 0];

internalField   nonuniform List<vector> 
1000
(
(0.25225587 -0.00012859767 1.8488354e-18)
(0.25226258 -0.00027067836 1.1691152e-18)
(0.25227485 -0.0004145054 1.7867951e-18)
(0.25228819 -0.00055572716 3.886377e-19)
(0.25229018 -0.0006857579 5.0695818e-19)
(0.25223998 -0.00079863172 1.516369e-19)
(0.25200713 -0.00089615194 -1.3486925e-19)
(0.25115686 -0.0010460356 -2.8531266e-19)
(0.24780473 -0.0012820719 -5.163299e-20)
(0.23308261 0.0010121611 -5.5846128e-19)
(0.25653043 -7.7330453e-05 1.5433859e-18)
(0.25653977 -0.00018903831 1.066033e-18)
(0.25655871 -0.00029096536 2.195914e-18)
(0.25657276 -0.00039024487 8.3393003e-19)
(0.25654377 -0.00048175039 5.157683e-19)
(0.25636039 -0.00055898443 1.7981164e-19)
(0.25570613 -0.00060536498 -1.169816e-19)
(0.25355952 -0.00065441364 -4.0536251e-19)
(0.24574266 -0.00084724769 -2.0169828e-19)
(0.21968686 0.00025718801 -5.3831468e-19)
(0.26021787 -7.3909991e-05 -5.7337383e-19)
(0.26022468 -0.00018059834 -5.5288989e-19)
(0.26023383 -0.00027741911 1.0988369e-18)
(0.26021807 -0.00037159742 6.7243708e-19)
(0.26010153 -0.00045735773 -1.5936027e-19)
(0.25968006 -0.00053044598 -2.7314035e-19)
(0.25840621 -0.00057093094 -1.5672695e-19)
(0.25452353 -0.00056554735 -3.0523744e-19)
(0.24186464 -0.00061987641 -4.1104372e-19)
(0.20839343 1.1252635e-05 -4.2276174e-19)
(0.26340526 -6.8945986e-05 1.534293e-19)
(0.26340956 -0.00017058508 3.444998e-19)
(0.26340597 -0.00026279228 1.0910105e-18)
(0.2633478 -0.00035138366 7.0291028e-19)
(0.26310913 -0.00042951136 -2.2100698e-19)
(0.26237282 -0.00049394988 -4.2520548e-19)
(0.26030373 -0.00052750971 -3.042897e-19)
(0.25430847 -0.00049289869 -2.5878975e-19)
(0.23723183 -0.00045934167 -3.5863648e-19)
(0.19958841 -4.8875377e-05 -3.5230951e-19)
(0.26641628 -6.4388939e-05 -1.8916977e-18)
(0.26641555 -0.00015946869 1.1358677e-18)
(0.266392 -0.00024539852 7.553568e-19)
(0.26627267 -0.00032748759 9.2018123e-19)
(0.26586988 -0.00039791743 3.1561603e-19)
(0.26472853 -0.00045250622 4.4466454e-19)
(0.26164542 -0.00047360861 -2.3002777e-20)
(0.25321249 -0.00041483785 -2.2418856e-19)
(0.23271016 -0.00033459253 -3.649733e-19)
(0.19329512 -5.0632208e-05 -3.6238572e-19)
(0.26927574 -6.0867488e-05 -4.6719351e-19)
(0.26926716 -0.0001502432 1.0939863e-18)
(0.2692148 -0.00023070432 7.2714209e-19)
(0.26901237 -0.00030702724 7.0767548e-19)
(0.26839647 -0.0003704999 4.0164371e-19)
(0.26673517 -0.00041493244 5.8530752e-19)
(0.26236788 -0.00041871881 6.4710832e-20)
(0.25136279 -0.00033835098 -1.9063025e-19)
(0.22869803 -0.00023662979 -1.4273779e-19)
(0.18902129 -3.9494705e-05 -2.8058309e-19)
(0.27197991 -5.8057519e-05 3.1626763e-18)
(0.27196007 -0.00014287131 2.1695616e-18)
(0.27186829 -0.00021894829 4.5212084e-19)
(0.2715565 -0.00029030345 4.6874596e-19)
(0.27066607 -0.00034728984 2.4688727e-19)
(0.26833152 -0.00038068286 1.9114754e-20)
(0.26239849 -0.00036437302 -1.1153649e-19)
(0.24902641 -0.00026852562 -1.9915487e-19)
(0.22536101 -0.00016272796 -9.6666628e-20)
(0.18616825 -2.8774468e-05 -2.6019986e-19)
(0.27455816 -5.5861832e-05 1.9169367e-19)
(0.27452281 -0.0001370321 1.3434627e-18)
(0.27437848 -0.00020952016 5.8866474e-19)
(0.27392442 -0.00027640504 4.1951927e-19)
(0.27267856 -0.00032682092 4.7591065e-19)
(0.26947685 -0.00034738431 1.9274104e-19)
(0.26178466 -0.00031092693 4.8894627e-20)
(0.24657382 -0.00020816891 -2.0887659e-19)
(0.22271521 -0.00011050104 -2.7532157e-19)
(0.18425837 -2.0836418e-05 -2.6282276e-19)
(0.27704027 -5.4085732e-05 -5.473704e-23)
(0.27698407 -0.00013225439 4.0215995e-19)
(0.27677058 -0.0002016258 1.3828451e-18)
(0.2761317 -0.00026417299 6.3431389e-19)
(0.27442312 -0.00030720595 4.1781402e-19)
(0.2701417 -0.00031294783 1.5086978e-19)
(0.26068998 -0.00025925812 7.4510524e-20)
(0.24429834 -0.00015836477 -1.1004362e-19)
(0.22067583 -7.5408677e-05 2.9707449e-20)
(0.18296197 -1.5153319e-05 -4.3225527e-20)
(0.27944341 -5.2555745e-05 2.8151412e-18)
(0.27935955 -0.00012814136 1.7503491e-18)
(0.27905543 -0.00019460757 4.9745624e-19)
(0.27817575 -0.00025259248 5.7461224e-19)
(0.27586796 -0.00028673468 2.9512628e-19)
(0.27032642 -0.0002765923 -1.9332459e-20)
(0.25933501 -0.00021094074 -2.2255458e-20)
(0.24234216 -0.0001189127 5.1501867e-20)
(0.21912382 -5.2172309e-05 4.0598357e-20)
(0.18206597 -1.0945846e-05 -9.6791925e-20)
(0.28177654 -5.1166641e-05 2.6230447e-18)
(0.28165619 -0.00012441969 3.6214313e-19)
(0.2812333 -0.00018797299 -1.9533177e-19)
(0.28003901 -0.00024077463 9.5442566e-19)
(0.27697397 -0.00026417655 1.5783089e-19)
(0.27008762 -0.00023880424 -4.3154954e-20)
(0.25792268 -0.00016762354 -1.5100383e-19)
(0.2407318 -8.8481717e-05 -9.1984033e-20)
(0.21795021 -3.6446022e-05 -1.7568831e-19)
(0.18143934 -7.6993933e-06 -1.6702728e-19)
(0.28404476 -4.9854725e-05 1.4499991e-18)
(0.28387626 -0.00012089415 9.4081933e-19)
(0.2832974 -0.00018132904 3.9997489e-19)
(0.28169344 -0.00022787709 6.8172836e-19)
(0.27771472 -0.0002389738 1.6199107e-19)
(0.26953509 -0.00020087544 1.6129906e-21)
(0.25659138 -0.00013036508 -8.9896329e-20)
(0.23943781 -6.5171317e-05 -1.9136937e-19)
(0.21706901 -2.5325444e-05 -2.7627318e-19)
(0.18100321 -5.1219537e-06 -1.9128377e-19)
(0.28625048 -4.8572059e-05 6.8850502e-19)
(0.28601827 -0.00011740085 1.3934842e-18)
(0.28523427 -0.00017430183 3.83276e-19)
(0.28310494 -0.00021314184 5.1614131e-19)
(0.27809438 -0.00021129045 4.8720486e-19)
(0.26879941 -0.00016439792 1.9359824e-19)
(0.25541092 -9.9329131e-05 3.6255626e-20)
(0.238414 -4.715552e-05 2.9334629e-20)
(0.21641537 -1.7078779e-05 -1.2644823e-19)
(0.1807089 -3.0434577e-06 -1.3485701e-19)
(0.28839354 -4.7270946e-05 9.7244345e-19)
(0.28807682 -0.0001137757 1.2534333e-18)
(0.28702342 -0.00016645973 5.7931532e-19)
(0.28424078 -0.00019602584 6.3074948e-19)
(0.27815548 -0.00018188506 5.9101633e-19)
(0.26799599 -0.0001307894 -4.6974158e-20)
(0.25440306 -7.3936834e-05 -4.1339283e-19)
(0.23761477 -3.3003601e-05 -1.4024584e-19)
(0.21594074 -1.071582e-05 -1.0361487e-19)
(0.18052448 -1.3527419e-06 -2.1215641e-19)
(0.29047097 -4.5891434e-05 2.0286894e-18)
(0.29004194 -0.00010982903 3.1452832e-18)
(0.28863779 -0.00015729291 9.7450404e-19)
(0.28508023 -0.00017633827 1.9414149e-19)
(0.27797081 -0.00015188683 2.8402559e-19)
(0.26720624 -0.0001009464 -5.1444292e-20)
(0.25356401 -5.3258563e-05 -3.1776067e-19)
(0.23700054 -2.1698467e-05 -2.9646657e-19)
(0.21560862 -5.6594648e-06 -1.852583e-19)
(0.1804276 3.393922e-08 -8.7145799e-20)
(0.29247637 -4.4351516e-05 2.4823042e-19)
(0.2918983 -0.0001053133 -2.8564553e-19)
(0.2900463 -0.00014628188 3.6883194e-19)
(0.2856247 -0.00015430629 8.7358967e-19)
(0.27762407 -0.00012253923 1.5584253e-19)
(0.26647731 -7.5147857e-05 -5.7539935e-20)
(0.25287923 -3.6357965e-05 1.2469341e-19)
(0.23653862 -1.2544615e-05 -1.4378513e-19)
(0.21539112 -1.5277825e-06 -8.1127959e-20)
(0.18040205 1.2055867e-06 9.9827928e-20)
(0.294399 -4.2542624e-05 -6.7709222e-19)
(0.2936244 -9.9894512e-05 -2.0256281e-19)
(0.29121909 -0.00013303028 -3.4245786e-20)
(0.28590172 -0.00013054538 6.1147647e-19)
(0.27719084 -9.494419e-05 2.6176234e-19)
(0.26583133 -5.3198547e-05 -1.5442896e-20)
(0.25233096 -2.2453135e-05 3.5139605e-21)
(0.23620236 -5.0207591e-06 -1.1882551e-19)
(0.21526451 1.8971996e-06 -1.3859475e-19)
(0.18043774 2.1934135e-06 -1.8351812e-19)
(0.29622248 -4.0322253e-05 1.3580624e-18)
(0.29519258 -9.3155371e-05 4.2958298e-20)
(0.29213503 -0.00011739318 1.2064521e-19)
(0.28595987 -0.0001059438 8.8788705e-19)
(0.27672821 -6.9857635e-05 2.1018364e-19)
(0.26527516 -3.4649785e-05 3.3296799e-19)
(0.2519011 -1.0911231e-05 9.0313184e-20)
(0.23596807 1.2314831e-06 1.252038e-19)
(0.21521692 4.7057035e-06 -9.0045563e-20)
(0.18052214 2.988473e-06 -9.6529703e-20)
(0.29792334 -3.7501315e-05 1.7953407e-18)
(0.29657068 -8.466051e-05 8.8347195e-19)
(0.29278917 -9.9552451e-05 5.6974072e-19)
(0.28585701 -8.1496591e-05 6.7815203e-19)
(0.27627358 -4.7619775e-05 2.625633e-19)
(0.26480714 -1.8984222e-05 2.1735835e-19)
(0.25157194 -1.2540776e-06 -3.078428e-20)
(0.23582161 6.4205323e-06 1.110746e-19)
(0.21523437 6.9891094e-06 -4.1202288e-20)
(0.18064612 3.6203923e-06 -1.4830354e-19)
(0.29946982 -3.3841689e-05 -1.0800251e-18)
(0.29772603 -7.4080413e-05 2.1604594e-18)
(0.29319629 -8.0020055e-05 4.8776326e-19)
(0.28564804 -5.8126226e-05 -1.1795495e-18)
(0.27584861 -2.8225421e-05 6.3227326e-20)
(0.26442121 -5.6903247e-06 -8.2729256e-20)
(0.25132937 6.8563187e-06 -2.4122177e-20)
(0.23575038 1.0705006e-05 -7.8194428e-20)
(0.21530524 8.8451899e-06 -5.137518e-20)
(0.18080243 4.123665e-06 -3.0306035e-21)
(0.30082184 -2.9094998e-05 -1.686325e-19)
(0.29863175 -6.1332497e-05 1.7713734e-18)
(0.29338823 -5.9567504e-05 -7.7509446e-20)
(0.28537719 -3.6522868e-05 -1.2203197e-18)
(0.27546384 -1.1417341e-05 -4.1169435e-19)
(0.26410765 5.6163573e-06 -3.1585179e-19)
(0.2511654 1.3623279e-05 -1.571511e-19)
(0.23574182 1.4219658e-05 -1.2966756e-19)
(0.21542012 1.0354889e-05 7.2825822e-20)
(0.1809852 4.5263594e-06 2.3282753e-19)
(0.30193375 -2.310902e-05 2.1377483e-18)
(0.29927338 -4.6685282e-05 1.3591256e-18)
(0.29340603 -3.9092364e-05 -2.3699195e-19)
(0.28507547 -1.7048408e-05 2.9451358e-19)
(0.27512088 3.0830193e-06 9.9458538e-19)
(0.26386444 1.5139512e-05 2.1998836e-19)
(0.25106782 1.9209164e-05 2.4374898e-20)
(0.2357854 1.7094179e-05 -3.634975e-21)
(0.21557121 1.1580449e-05 4.8960659e-20)
(0.1811895 4.8474748e-06 3.8728933e-21)
(0.30276112 -1.597746e-05 -6.4356587e-19)
(0.29965288 -3.0774203e-05 -8.4545163e-19)
(0.29329056 -1.9437618e-05 -8.7026461e-19)
(0.28476121 1.6623569e-07 -6.2369796e-19)
(0.27482456 1.5439179e-05 2.2523822e-19)
(0.26368338 2.3070061e-05 2.5897947e-19)
(0.25102649 2.3801089e-05 4.1776958e-19)
(0.2358724 1.9433296e-05 5.7747634e-20)
(0.215752 1.256427e-05 -3.4002648e-20)
(0.1814111 5.098526e-06 7.9684612e-20)
(0.30327137 -8.1286939e-06 -1.9481717e-20)
(0.29978736 -1.4487682e-05 1.666601e-18)
(0.29307479 -1.307419e-06 -5.6825979e-19)
(0.28444919 1.5037346e-05 -7.9264918e-19)
(0.27457433 2.5801891e-05 -1.1468393e-18)
(0.26355615 2.9611688e-05 -2.8527913e-19)
(0.25103261 2.7542976e-05 -3.3762046e-19)
(0.23599542 2.1310029e-05 -9.9577074e-20)
(0.21595697 1.3335244e-05 9.6987826e-22)
(0.18164631 5.2869823e-06 8.1101602e-20)
(0.30345404 -2.4318927e-07 -5.2431562e-19)
(0.29970268 1.1312665e-06 1.0960406e-18)
(0.29278641 1.4660305e-05 -2.7203353e-19)
(0.28414895 2.7523651e-05 -1.1268401e-19)
(0.27436561 3.4334673e-05 -3.0493532e-19)
(0.26347497 3.4928011e-05 -2.5117038e-19)
(0.25107851 3.0534483e-05 -2.172949e-19)
(0.23614809 2.2772996e-05 3.9259703e-20)
(0.21618127 1.3912007e-05 9.5499063e-20)
(0.18189178 5.4170703e-06 4.1774892e-20)
(0.30332525 6.8805889e-06 -2.5295699e-18)
(0.29943303 1.4983969e-05 -2.0041351e-18)
(0.29244694 2.7992883e-05 -6.1503272e-19)
(0.28386236 3.7675592e-05 -1.4026848e-18)
(0.27419305 4.1186146e-05 -1.1044932e-18)
(0.26343258 3.9127056e-05 -6.5665239e-19)
(0.2511573 3.283539e-05 1.1534903e-19)
(0.23632473 2.3848703e-05 8.9754914e-20)
(0.21642053 1.4302653e-05 3.3478849e-20)
(0.18214438 5.4893462e-06 1.020594e-19)
(0.30293065 1.2607358e-05 1.5642317e-18)
(0.29901541 2.6253369e-05 -8.6295626e-19)
(0.2920693 3.8508504e-05 -9.4611463e-19)
(0.2835888 4.5590536e-05 -9.5981267e-20)
(0.27405098 4.6452881e-05 4.8242072e-19)
(0.26342222 4.2267877e-05 -7.0046002e-20)
(0.25126272 3.4473183e-05 -2.5817974e-20)
(0.23652013 2.4544486e-05 6.7170147e-20)
(0.2166706 1.4505488e-05 -2.5362266e-20)
(0.18240098 5.5009884e-06 -2.0810061e-20)
(0.30233176 1.6687307e-05 2.9135603e-19)
(0.29848541 3.4602806e-05 -4.1335666e-19)
(0.29166299 4.6233755e-05 -1.4540672e-18)
(0.28332655 5.1362884e-05 -4.8277205e-19)
(0.27393384 5.0197859e-05 9.1097828e-19)
(0.26343756 4.43811e-05 3.7126725e-19)
(0.25138895 3.545503e-05 7.3205738e-20)
(0.23672933 2.4855102e-05 6.9186425e-20)
(0.21692735 1.4512498e-05 -2.3650639e-20)
(0.1826583 5.4472778e-06 -4.403425e-21)
(0.3015933 1.91834e-05 3.8381053e-19)
(0.29787663 4.0086914e-05 1.5951668e-18)
(0.29123638 5.1330324e-05 -3.5880538e-19)
(0.28307384 5.5106459e-05 -7.5695988e-19)
(0.27383648 5.2481528e-05 -9.7216751e-19)
(0.26347281 4.5490158e-05 2.6955069e-20)
(0.25153052 3.5781808e-05 -3.4332519e-19)
(0.23694749 2.4771786e-05 -2.0503698e-19)
(0.21718658 1.43144e-05 -8.7390701e-20)
(0.18291285 5.3235634e-06 -2.4913541e-20)
(0.30077406 2.0344908e-05 8.9254714e-19)
(0.29721993 4.3031903e-05 2.7094305e-19)
(0.29079787 5.4065967e-05 -2.9238155e-19)
(0.2828296 5.6977812e-05 -2.3533876e-20)
(0.27375457 5.3385331e-05 -5.4633634e-19)
(0.2635228 4.5630053e-05 -2.9628475e-19)
(0.25168237 3.5462266e-05 -1.4965463e-19)
(0.23716993 2.4291803e-05 -2.1651808e-19)
(0.21744403 1.3905984e-05 5.9600732e-20)
(0.18316093 5.1270909e-06 3.2083055e-21)
(0.29992217 2.0484153e-05 -3.0218353e-18)
(0.29654257 4.3899972e-05 -2.0254674e-18)
(0.29035621 5.4781919e-05 -7.9924335e-19)
(0.2825938 5.7183013e-05 -1.5374092e-18)
(0.27368472 5.3025261e-05 -6.3305286e-19)
(0.26358305 4.4861063e-05 -8.9189077e-19)
(0.25183983 3.4524383e-05 -3.0387009e-20)
(0.23739213 2.3426471e-05 -5.8797642e-23)
(0.21769548 1.3290847e-05 9.8283044e-20)
(0.18339886 4.8586467e-06 1.2332779e-19)
(0.29907417 1.9896539e-05 1.4496534e-18)
(0.29586741 4.3179115e-05 5.7198326e-19)
(0.28992016 5.3854752e-05 -4.1665169e-19)
(0.28236746 5.5968805e-05 1.2993681e-19)
(0.27362453 5.1553671e-05 5.8010229e-19)
(0.26364988 4.3274054e-05 3.5614376e-19)
(0.2519988 3.3020799e-05 3.9853378e-20)
(0.23760993 2.2205268e-05 2.1096543e-19)
(0.21793692 1.2483872e-05 1.0598819e-19)
(0.18362311 4.5233544e-06 7.157991e-20)
(0.2982561 1.882569e-05 2.6145388e-18)
(0.29521258 4.1315375e-05 1.1914798e-18)
(0.28949794 5.1660293e-05 -8.1153176e-20)
(0.28215233 5.3604537e-05 7.6916061e-20)
(0.27357254 4.9151659e-05 -3.2005638e-21)
(0.26372035 4.0987916e-05 3.6519343e-19)
(0.25215572 3.1028287e-05 3.6231354e-19)
(0.23781961 2.0675918e-05 2.6048354e-19)
(0.21816474 1.1511473e-05 2.1096623e-19)
(0.18383057 4.1308305e-06 1.5619793e-19)
(0.2974854 1.7457446e-05 3.5221108e-18)
(0.29459163 3.8682506e-05 3.0929529e-18)
(0.28909667 4.8546066e-05 1.3329014e-18)
(0.28195052 5.0361725e-05 5.4373673e-19)
(0.27352798 4.6015959e-05 -1.0099027e-18)
(0.26379223 3.8141245e-05 -5.7363249e-19)
(0.25230769 2.8642311e-05 -3.6464917e-19)
(0.23801802 1.8900817e-05 -9.0800599e-20)
(0.21837593 1.0409508e-05 1.2092705e-19)
(0.18401876 3.6944626e-06 1.1814851e-19)
(0.29677289 1.5927186e-05 5.1436834e-19)
(0.29401394 3.5576383e-05 4.6700595e-19)
(0.28872208 4.4814947e-05 8.197592e-19)
(0.28176412 4.6496653e-05 4.173002e-19)
(0.27349055 4.2344851e-05 2.9587732e-19)
(0.26386389 3.4881598e-05 -2.4542837e-19)
(0.25245241 2.5969014e-05 -3.3496357e-19)
(0.23820265 1.6951354e-05 -6.2644728e-20)
(0.21856815 9.2197624e-06 -2.7165245e-20)
(0.18418591 3.2300855e-06 -3.0697331e-20)
(0.29612447 1.4330789e-05 -3.7331976e-18)
(0.29348539 3.2222211e-05 -2.9871016e-18)
(0.28837834 4.0718832e-05 -4.1153624e-19)
(0.2815949 4.2238503e-05 -1.5782896e-18)
(0.27346018 3.8326129e-05 -6.2609904e-19)
(0.26393414 3.1355027e-05 -7.3658092e-19)
(0.25258816 2.3116752e-05 7.9891973e-20)
(0.23837165 1.490165e-05 -4.0555444e-21)
(0.21873984 7.98598e-06 -9.5882317e-20)
(0.18433105 2.7544133e-06 5.3593662e-20)
(0.29554245 1.2734753e-05 2.0295188e-18)
(0.29300903 2.8786302e-05 4.0913068e-19)
(0.28806807 3.6459217e-05 5.331332e-20)
(0.28144414 3.7782941e-05 1.1259969e-18)
(0.27343686 3.4128352e-05 1.1231586e-18)
(0.26400216 2.7697352e-05 6.2895978e-19)
(0.2527137 2.0188488e-05 2.0895002e-19)
(0.23852383 1.2822694e-05 -3.4544299e-20)
(0.21889019 6.7500019e-06 -1.3188445e-19)
(0.18445397 2.2833807e-06 -9.5763909e-20)
(0.29502659 1.1184301e-05 1.2468916e-18)
(0.29258573 2.5388303e-05 2.032464e-18)
(0.28779254 3.2191865e-05 -4.996077e-20)
(0.28131251 3.3290327e-05 7.3769011e-19)
(0.2734205 2.9895783e-05 1.4805762e-18)
(0.26406732 2.4028147e-05 9.2103209e-19)
(0.25282826 1.7276151e-05 3.7338186e-19)
(0.23865858 1.0777898e-05 1.1305023e-19)
(0.21901907 5.5489014e-06 -2.8509167e-20)
(0.18455518 1.8309443e-06 -4.2180758e-20)
(0.29457488 9.7093031e-06 1.820171e-18)
(0.29221467 2.2111787e-05 4.7536865e-18)
(0.28755185 2.8033079e-05 1.1461064e-18)
(0.2812001 2.8886879e-05 5.9943267e-19)
(0.27341088 2.5746265e-05 -3.9639417e-19)
(0.26412919 2.0447189e-05 1.6170726e-19)
(0.25293145 1.4456947e-05 -2.7266749e-20)
(0.23877585 8.8200988e-06 -8.4994536e-21)
(0.219127 4.4130118e-06 1.2850647e-19)
(0.18463576 1.4082319e-06 4.9632808e-20)
(0.29418415 8.3286223e-06 5.1155265e-18)
(0.29189387 1.9012978e-05 3.4538976e-18)
(0.28734514 2.4066393e-05 2.2434966e-18)
(0.28110648 2.4667817e-05 3.1031502e-18)
(0.27340759 2.1771569e-05 1.9137119e-18)
(0.26418743 1.7033319e-05 1.1669018e-18)
(0.25302315 1.179178e-05 4.53457e-19)
(0.23887601 6.9902593e-06 2.5714449e-19)
(0.21921498 3.3651757e-06 8.9753954e-20)
(0.18469726 1.0233132e-06 -9.1163132e-20)
(0.29385042 7.0531615e-06 3.2268849e-18)
(0.29162049 1.6127495e-05 7.4355244e-20)
(0.28717084 2.0348776e-05 4.5043884e-18)
(0.28103077 2.0701326e-05 3.5065971e-18)
(0.2734101 1.8039226e-05 2.1942032e-18)
(0.26424176 1.3844952e-05 1.8841848e-18)
(0.25310353 9.3252e-06 1.3667739e-18)
(0.23895979 5.3173345e-06 7.2641863e-19)
(0.21928441 2.4206918e-06 4.4448272e-19)
(0.18474152 6.8121697e-07 1.4323781e-19)
(0.29356929 5.8881471e-06 1.3626399e-18)
(0.29139115 1.3475692e-05 1.4463917e-18)
(0.28702687 1.691623e-05 3.6154375e-18)
(0.28097176 1.7032963e-05 2.4804053e-18)
(0.27341771 1.4595472e-05 2.1126346e-18)
(0.26429199 1.0921961e-05 1.9557196e-18)
(0.25317294 7.0866933e-06 1.4532627e-18)
(0.23902821 3.8192813e-06 8.7911894e-19)
(0.21933695 1.5880829e-06 7.3642096e-19)
(0.18477058 3.8434462e-07 3.5676826e-19)
(0.29333613 4.8347645e-06 1.2420156e-18)
(0.29120218 1.1066738e-05 3.0036994e-18)
(0.2869108 1.37886e-05 3.1696112e-18)
(0.28092798 1.3690006e-05 3.829021e-18)
(0.27342969 1.1468703e-05 3.3659341e-18)
(0.26433798 8.2883756e-06 1.6575029e-18)
(0.25323189 5.0928515e-06 1.4408863e-18)
(0.23908248 2.5047922e-06 1.1261551e-18)
(0.2193744 8.7036085e-07 8.3969304e-19)
(0.18478652 1.3304347e-07 6.1965752e-19)
(0.29314627 3.8913681e-06 2.0752491e-18)
(0.29104974 8.9017055e-06 2.8467541e-18)
(0.28682 1.0973464e-05 2.9358194e-18)
(0.28089782 1.0685253e-05 3.8072462e-18)
(0.27344521 8.6727314e-06 3.2822702e-18)
(0.26437966 5.9550011e-06 2.1544573e-18)
(0.25328103 3.3492739e-06 1.5120487e-18)
(0.23912392 1.374419e-06 1.1778861e-18)
(0.21939865 2.7118995e-07 8.3013671e-19)
(0.18479142 -6.9921703e-08 6.5573813e-19)
(0.29299509 3.0541791e-06 1.0164916e-19)
(0.29092997 6.9754934e-06 7.3457349e-19)
(0.28675175 8.4686577e-06 1.4663122e-19)
(0.28087962 8.0195028e-06 1.2609129e-18)
(0.2734635 6.2088177e-06 2.382707e-18)
(0.264417 3.9210297e-06 2.3417983e-18)
(0.25332107 1.8526811e-06 1.7080112e-18)
(0.23915391 4.2781303e-07 1.2541829e-18)
(0.21941122 -2.1440913e-07 7.8629436e-19)
(0.18478766 -2.2863586e-07 5.5723682e-19)
(0.29287815 2.3180364e-06 5.1240057e-19)
(0.29083911 5.2787924e-06 9.2515979e-19)
(0.28670334 6.2650985e-06 2.2126221e-18)
(0.28087168 5.6848171e-06 1.4475015e-18)
(0.27348375 4.0691614e-06 6.0584162e-19)
(0.26445003 2.1783258e-06 2.2133014e-18)
(0.25335273 5.9840588e-07 1.6919622e-18)
(0.23917354 -3.4401167e-07 1.4758274e-18)
(0.21941458 -6.0471233e-07 1.1680217e-18)
(0.18477676 -3.5413316e-07 7.2892687e-19)
(0.29279122 1.6769948e-06 2.0808633e-18)
(0.29077354 3.799729e-06 2.1284642e-18)
(0.28667214 4.3492953e-06 2.4522275e-18)
(0.28087239 3.6677326e-06 1.4584931e-18)
(0.27350525 2.2411428e-06 1.7302096e-18)
(0.26447878 7.1781917e-07 1.9596993e-18)
(0.25337658 -4.2787278e-07 1.4899483e-18)
(0.23918481 -9.6404286e-07 1.3377005e-18)
(0.21941032 -9.1347834e-07 1.1900957e-18)
(0.1847602 -4.5114957e-07 8.9781983e-19)
(0.29273032 1.1246579e-06 9.9368166e-19)
(0.29072982 2.5248004e-06 3.6390533e-18)
(0.28665564 2.7049211e-06 4.286312e-18)
(0.28088017 1.9519165e-06 4.2477512e-18)
(0.27352727 7.1155331e-07 3.6865897e-18)
(0.26450318 -4.7926396e-07 2.000026e-18)
(0.25339398 -1.2540168e-06 1.8153791e-18)
(0.239189 -1.4516902e-06 1.502272e-18)
(0.21939987 -1.147384e-06 1.3444972e-18)
(0.18473938 -5.2138502e-07 1.0839793e-18)
(0.29269172 6.5445573e-07 9.1834082e-19)
(0.29070475 1.4399068e-06 2.9167976e-18)
(0.28665145 1.3154544e-06 3.7690996e-18)
(0.28089351 5.2155694e-07 3.6997319e-18)
(0.27354905 -5.420417e-07 2.8066973e-18)
(0.2645239 -1.4443358e-06 2.0464464e-18)
(0.25340575 -1.9043283e-06 1.968293e-18)
(0.23918727 -1.8199115e-06 1.6686259e-18)
(0.2193846 -1.3133532e-06 1.3745404e-18)
(0.18471553 -5.6730497e-07 1.0761346e-18)
(0.292672 2.6024268e-07 7.2747488e-19)
(0.29069531 5.3197557e-07 5.824176e-19)
(0.28665729 1.6354288e-07 -4.7554815e-19)
(0.28091098 -6.4893149e-07 9.0917747e-19)
(0.27357052 -1.5532972e-06 2.1859864e-18)
(0.26454118 -2.2051278e-06 1.9631559e-18)
(0.25341262 -2.3967349e-06 1.8396521e-18)
(0.23918072 -2.0815486e-06 1.5834543e-18)
(0.21936569 -1.4197586e-06 1.1435211e-18)
(0.18468975 -5.9214764e-07 1.005901e-18)
(0.29266796 -6.4476368e-08 1.9010368e-18)
(0.29069869 -2.1485564e-07 1.5412398e-18)
(0.28667115 -7.7598708e-07 2.2479928e-18)
(0.28093169 -1.592365e-06 1.3896522e-18)
(0.27359127 -2.350827e-06 1.22312e-18)
(0.26455524 -2.7828094e-06 1.9716588e-18)
(0.25341531 -2.7487793e-06 1.9538509e-18)
(0.23917033 -2.250294e-06 1.8227069e-18)
(0.21934422 -1.4753523e-06 1.6175091e-18)
(0.18466296 -5.9927874e-07 1.190256e-18)
(0.29267673 -3.2775098e-07 2.164717e-18)
(0.29071248 -8.1986035e-07 1.8214144e-18)
(0.28669139 -1.5296586e-06 2.1993451e-18)
(0.28095462 -2.3342434e-06 1.3674713e-18)
(0.27361099 -2.9568762e-06 1.4884599e-18)
(0.26456635 -3.1981404e-06 1.6191477e-18)
(0.25341448 -2.9786268e-06 1.884188e-18)
(0.23915701 -2.3398652e-06 1.7160101e-18)
(0.21932112 -1.4886339e-06 1.6977671e-18)
(0.18463593 -5.9196702e-07 1.2291985e-18)
(0.29269581 -5.3698785e-07 1.6725032e-18)
(0.29073454 -1.2995053e-06 2.7575662e-18)
(0.28671645 -2.1176357e-06 1.9335882e-18)
(0.2809789 -2.8960947e-06 2.1845768e-18)
(0.27362944 -3.3934581e-06 1.9702877e-18)
(0.26457479 -3.4719872e-06 1.792056e-18)
(0.25341078 -3.1039688e-06 1.8148894e-18)
(0.23914156 -2.3632083e-06 1.6197141e-18)
(0.21929717 -1.4674183e-06 1.5135096e-18)
(0.1846093 -5.7316293e-07 1.1872273e-18)
(0.29272297 -6.9813663e-07 1.0194743e-18)
(0.29076294 -1.6675628e-06 3.349199e-18)
(0.28674496 -2.55834e-06 2.5765806e-18)
(0.28100378 -3.2990493e-06 1.6358876e-18)
(0.27364644 -3.6823096e-06 7.6811126e-19)
(0.26458082 -3.6245226e-06 1.4694243e-18)
(0.25340477 -3.1415373e-06 1.4813934e-18)
(0.23912469 -2.3323278e-06 1.6060999e-18)
(0.21927304 -1.4188333e-06 1.4100057e-18)
(0.18458357 -5.4554938e-07 1.1982473e-18)
(0.29275623 -8.1680992e-07 2.1694705e-18)
(0.290796 -1.9370568e-06 2.5184919e-18)
(0.28677574 -2.8695223e-06 4.2627588e-18)
(0.28102864 -3.5635475e-06 2.0851972e-18)
(0.27366188 -3.8442124e-06 1.883415e-18)
(0.26458475 -3.674714e-06 9.80502e-19)
(0.25339699 -3.1067758e-06 1.3189714e-18)
(0.23910701 -2.2580693e-06 1.4336572e-18)
(0.21924927 -1.3491514e-06 1.2504852e-18)
(0.18455911 -5.1141834e-07 1.1534867e-18)
(0.29279385 -8.9834958e-07 1.1364316e-18)
(0.29083222 -2.1204198e-06 2.4155451e-18)
(0.28680774 -3.0682044e-06 4.6399243e-18)
(0.28105295 -3.7091054e-06 2.8161466e-18)
(0.2736757 -3.8987978e-06 2.1405655e-18)
(0.26458684 -3.6402281e-06 1.9739016e-18)
(0.25338791 -3.0138305e-06 1.6357763e-18)
(0.23908902 -2.1501956e-06 1.5152065e-18)
(0.2192263 -1.26394e-06 1.5061033e-18)
(0.18453621 -4.7280154e-07 1.2025056e-18)
(0.29283431 -9.4774948e-07 6.0680325e-19)
(0.29087033 -2.2293508e-06 6.1273611e-19)
(0.28684011 -3.1704281e-06 -1.622922e-19)
(0.28107631 -3.7540079e-06 2.177719e-18)
(0.27368791 -3.8642463e-06 2.2886068e-18)
(0.26458738 -3.5371704e-06 2.4078119e-18)
(0.25337794 -2.8753557e-06 1.6994972e-18)
(0.23907115 -2.0172445e-06 1.5149039e-18)
(0.21920445 -1.1679291e-06 1.4979039e-18)
(0.18451505 -4.3136489e-07 1.2436097e-18)
(0.29287632 -9.6972067e-07 1.6607714e-18)
(0.29090923 -2.2748642e-06 9.9298848e-19)
(0.28687213 -3.1912423e-06 1.2977238e-18)
(0.28109841 -3.7152757e-06 1.8735197e-18)
(0.27369851 -3.7572896e-06 1.7456557e-18)
(0.26458662 -3.3801517e-06 1.8498628e-18)
(0.25336744 -2.7026432e-06 1.7744319e-18)
(0.23905376 -1.8667086e-06 1.6496333e-18)
(0.21918397 -1.0652164e-06 1.5908014e-18)
(0.18449577 -3.8855306e-07 1.2628257e-18)
(0.29291876 -9.6861214e-07 1.5397338e-18)
(0.290948 -2.2671612e-06 1.7419145e-18)
(0.2869032 -3.1445425e-06 1.244825e-18)
(0.281119 -3.6084945e-06 9.9861555e-19)
(0.27370758 -3.5930496e-06 1.4678241e-19)
(0.26458481 -3.1821553e-06 1.025621e-18)
(0.25335673 -2.5055298e-06 1.6549659e-18)
(0.23903711 -1.7049643e-06 1.7068335e-18)
(0.21916505 -9.5917996e-07 1.5474175e-18)
(0.18447841 -3.4550425e-07 1.2925785e-18)
(0.29296072 -9.4847278e-07 1.0193382e-18)
(0.29098589 -2.2156923e-06 3.2678413e-18)
(0.28693287 -3.0431118e-06 3.8457716e-18)
(0.28113794 -3.4478591e-06 2.3857843e-18)
(0.2737152 -3.385121e-06 2.0477068e-18)
(0.26458216 -2.9546756e-06 7.4399754e-19)
(0.25334606 -2.2925746e-06 1.3712375e-18)
(0.23902142 -1.5374659e-06 1.4401191e-18)
(0.21914778 -8.5268006e-07 1.2596486e-18)
(0.18446298 -3.0318929e-07 1.2562843e-18)
(0.29300145 -9.1297344e-07 1.3344177e-18)
(0.29102231 -2.1290477e-06 3.2811626e-18)
(0.28696077 -2.8985061e-06 4.6039865e-18)
(0.28115513 -3.2460654e-06 2.7617018e-18)
(0.27372147 -3.1454769e-06 2.6164465e-18)
(0.26457889 -2.7076405e-06 2.2366262e-18)
(0.25333565 -2.0710027e-06 1.7290264e-18)
(0.23900683 -1.3686869e-06 1.6202358e-18)
(0.21913222 -7.4796565e-07 1.5603346e-18)
(0.18444946 -2.623206e-07 1.2552916e-18)
(0.29304036 -8.654686e-07 2.8674516e-18)
(0.29105677 -2.0150325e-06 1.5562758e-18)
(0.28698667 -2.7211295e-06 -8.8187646e-19)
(0.28117053 -3.0144048e-06 1.1213574e-18)
(0.27372649 -2.884607e-06 2.2215238e-18)
(0.26457516 -2.449597e-06 2.7010417e-18)
(0.25332565 -1.8469101e-06 2.0868756e-18)
(0.23899344 -1.2023222e-06 1.6923184e-18)
(0.21911839 -6.4686329e-07 1.518556e-18)
(0.18443776 -2.23475e-07 1.2203899e-18)
(0.29307697 -8.0894539e-07 1.0440139e-18)
(0.29108893 -1.8806036e-06 2.4816403e-18)
(0.28701038 -2.5201868e-06 1.1261241e-18)
(0.28118414 -2.7627382e-06 1.874788e-18)
(0.2737304 -2.6115091e-06 2.4657426e-18)
(0.26457114 -2.187713e-06 2.5741888e-18)
(0.25331621 -1.6252715e-06 2.0695906e-18)
(0.23898132 -1.0412837e-06 1.7629509e-18)
(0.21910626 -5.5073821e-07 1.6188993e-18)
(0.18442781 -1.8704752e-07 1.3340022e-18)
(0.29311097 -7.4607909e-07 3.5819975e-19)
(0.29111854 -1.7319525e-06 1.3089458e-18)
(0.28703182 -2.3037777e-06 1.4195662e-18)
(0.28119601 -2.4996189e-06 1.6743655e-18)
(0.2737333 -2.3338539e-06 7.5373858e-19)
(0.26456697 -1.9279747e-06 1.7252693e-18)
(0.25330742 -1.4101405e-06 1.7831213e-18)
(0.23897048 -8.8787813e-07 1.8900031e-18)
(0.21909576 -4.6064783e-07 1.6786478e-18)
(0.18441948 -1.5335225e-07 1.3545509e-18)
(0.29314212 -6.7919834e-07 8.6765759e-19)
(0.29114546 -1.5744731e-06 1.2724945e-18)
(0.28705095 -2.0788971e-06 2.898633e-18)
(0.28120619 -2.2323226e-06 1.9915892e-18)
(0.27373532 -2.0580296e-06 1.7376559e-18)
(0.26456275 -1.6752338e-06 4.9183559e-19)
(0.25329934 -1.204686e-06 1.2917376e-18)
(0.23896093 -7.4381819e-07 1.488516e-18)
(0.21908682 -3.7730851e-07 1.3009058e-18)
(0.18441267 -1.2257189e-07 1.214311e-18)
(0.29317029 -6.1033326e-07 1.4425412e-18)
(0.29116962 -1.4128406e-06 2.7440129e-18)
(0.2870678 -1.8515318e-06 4.7449486e-18)
(0.28121479 -1.9669705e-06 3.0846427e-18)
(0.27373658 -1.7892959e-06 2.3538308e-18)
(0.26455858 -1.4333746e-06 1.6873648e-18)
(0.25329201 -1.0113532e-06 1.4765416e-18)
(0.23895261 -6.1035754e-07 1.467282e-18)
(0.21907935 -3.0120556e-07 1.5379118e-18)
(0.18440723 -9.4822026e-08 1.2976864e-18)
(0.29319545 -5.4120159e-07 1.7498717e-18)
(0.29119101 -1.2510091e-06 1.3676539e-18)
(0.28708241 -1.6266875e-06 -8.1122702e-19)
(0.28122191 -1.7085831e-06 1.3421191e-18)
(0.27373718 -1.5318461e-06 1.7980819e-18)
(0.26455455 -1.2053718e-06 2.4720941e-18)
(0.25328545 -8.3190319e-07 1.8239269e-18)
(0.23894549 -4.8830353e-07 1.6467461e-18)
(0.21907323 -2.3257428e-07 1.5795671e-18)
(0.18440303 -7.0117007e-08 1.2580244e-18)
(0.2932176 -4.7324515e-07 1.4936059e-18)
(0.29120968 -1.0922792e-06 1.0190942e-18)
(0.2870949 -1.4084746e-06 9.4511855e-21)
(0.28122767 -1.4611823e-06 7.8401007e-19)
(0.27373724 -1.288925e-06 1.7064491e-18)
(0.2645507 -9.9340928e-07 2.2932222e-18)
(0.25327966 -6.675182e-07 2.0378151e-18)
(0.2389395 -3.7810637e-07 1.7574425e-18)
(0.21906835 -1.7147611e-07 1.6090406e-18)
(0.18439994 -4.8410702e-08 1.2964175e-18)
(0.29323683 -4.0762477e-07 4.5130753e-19)
(0.29122574 -9.3930623e-07 1.2356162e-18)
(0.28710538 -1.2001402e-06 7.8637955e-19)
(0.2812322 -1.2278424e-06 7.827387e-19)
(0.27373685 -1.0628819e-06 8.9994415e-19)
(0.2645471 -7.9892581e-07 1.4517348e-18)
(0.25327461 -5.1882875e-07 1.8398697e-18)
(0.23893455 -2.798582e-07 1.9136526e-18)
(0.21906458 -1.1777931e-07 1.7321017e-18)
(0.18439782 -2.9584343e-08 1.4326789e-18)
(0.29325327 -3.4525809e-07 1.2140378e-18)
(0.29123932 -7.9417154e-07 2.6509051e-18)
(0.287114 -1.004159e-06 3.4171155e-18)
(0.28123561 -1.0107983e-06 2.2293935e-18)
(0.2737361 -8.5528781e-07 2.3369101e-18)
(0.26454376 -6.2272715e-07 1.1182067e-18)
(0.25327029 -3.8601696e-07 1.4898878e-18)
(0.23893056 -1.9338354e-07 1.6705181e-18)
(0.21906181 -7.1229642e-08 1.4893589e-18)
(0.18439654 -1.3487616e-08 1.362137e-18)