/*--------------------------------*- C++ -*----------------------------------*\
| =========                 |                                                 |
| \\      /  F ield         | OpenFOAM: The Open Source CFD Toolbox           |
|  \\    /   O peration     | Version:  2506                                  |
|   \\  /    A nd           | Website:  www.openfoam.com                      |
|    \\/     M anipulation  |                                                 |
\*---------------------------------------------------------------------------*/
FoamFile
{
    version     2.0;
    format      ascii;
    arch        "LSB;label=32;scalar=64";
    class       volScalarField;
    location    "9000/water";
    object      alphat;
}
// * * * * * * * * * * * * * * * * * * * * * * * * * * * * * * * * * * * * * //

dimensions      [1 -1 -1 0 0 0 0];

internalField   nonuniform List<scalar> 
6000
(
0.041292847
0.041292824
0.041292831
0.041292856
0.041292889
0.041292932
0.041292983
0.041293016
0.041292808
0.041290571
0.041271537
0.041111294
0.0397723
0.030564074
0.013464793
0.040788543
0.040788537
0.040788576
0.040788654
0.040788758
0.040788888
0.04078902
0.040788972
0.040787494
0.040776037
0.040696382
0.040161217
0.036863805
0.023766469
0.015141611
0.04033569
0.040335696
0.040335761
0.040335884
0.040336044
0.040336229
0.04033633
0.040335685
0.040330323
0.040296649
0.040097616
0.038983223
0.033614213
0.0194951
0.016360294
0.039926215
0.039926219
0.039926301
0.039926459
0.03992666
0.039926848
0.039926701
0.039924457
0.039910659
0.039835636
0.039448738
0.037597438
0.030384627
0.016783058
0.017196555
0.039553796
0.039553808
0.039553906
0.039554093
0.039554312
0.039554413
0.039553622
0.0395481
0.039519187
0.039379112
0.038737841
0.036066498
0.027427863
0.015063192
0.01773179
0.039213273
0.039213296
0.039213408
0.039213613
0.039213809
0.039213657
0.039211571
0.039200298
0.039147643
0.038916647
0.037965398
0.034462847
0.024852826
0.013984463
0.018040007
0.038900366
0.038900399
0.038900521
0.038900723
0.038900826
0.038900159
0.038895819
0.03887551
0.038788999
0.038441492
0.037140256
0.032849727
0.022675913
0.013336844
0.018183117
0.038611532
0.038611573
0.038611697
0.038611866
0.038611765
0.038610199
0.038602307
0.038568928
0.038437606
0.037950377
0.036275872
0.031274836
0.020870828
0.012994967
0.018210197
0.038343817
0.038343862
0.038343975
0.038344065
0.038343601
0.038340605
0.038327517
0.03827644
0.038089201
0.037442856
0.03538704
0.029770034
0.019396999
0.012882914
0.018158676
0.038094736
0.03809478
0.038094862
0.038094803
0.038093753
0.038088644
0.038068396
0.037994592
0.037740813
0.036920505
0.03448763
0.028354169
0.018213448
0.012953916
0.018056304
0.037862183
0.037862216
0.037862238
0.037861935
0.037860009
0.037851941
0.037822294
0.037720559
0.037390607
0.036386134
0.033589398
0.02703684
0.017284481
0.013178532
0.017923231
0.03764436
0.037644371
0.037644291
0.037643618
0.037640447
0.037628426
0.037586933
0.037452106
0.037037684
0.035843147
0.032701562
0.025821837
0.016581272
0.013537499
0.017773886
0.037439726
0.037439699
0.03743946
0.037438254
0.037433393
0.037416287
0.037360374
0.037187532
0.036681868
0.035295042
0.031830871
0.02470985
0.016081614
0.014017191
0.017618497
0.037246949
0.037246861
0.037246392
0.037244452
0.037237378
0.037213943
0.037140989
0.036925609
0.0363235
0.034745073
0.030981931
0.023700436
0.015768976
0.014606606
0.017464261
0.037064871
0.037064693
0.037063903
0.037060987
0.037051109
0.037020016
0.036927437
0.036665512
0.035963258
0.03419604
0.030157673
0.022793377
0.015631332
0.015295285
0.017316197
0.03689248
0.036892177
0.036890955
0.036886782
0.036873442
0.036833316
0.036718634
0.03640675
0.035602004
0.033650187
0.029359858
0.021989538
0.015659917
0.016071914
0.01717775
0.036728885
0.036728414
0.036726628
0.036720878
0.03670337
0.036652818
0.036513731
0.036149096
0.035240656
0.033109157
0.028589603
0.021291346
0.015847992
0.016923492
0.017051196
0.036573301
0.03657261
0.036570106
0.036562424
0.036540005
0.036477653
0.03631208
0.035892529
0.034880099
0.032574024
0.027847913
0.02070292
0.016189617
0.01783505
0.016937916
0.036425028
0.036424056
0.036420663
0.036410663
0.036382564
0.036307092
0.036113215
0.03563717
0.034521109
0.032045349
0.027136212
0.020229918
0.016678486
0.018789895
0.016838558
0.036283441
0.03628212
0.036277645
0.036264917
0.036230367
0.036140535
0.03591682
0.035383242
0.034164308
0.031523285
0.026456862
0.019879123
0.017306891
0.019770317
0.016753165
0.036147982
0.036146234
0.036140468
0.036124584
0.036082821
0.035977497
0.035722708
0.035131018
0.033810124
0.031007717
0.025813646
0.019657797
0.018064912
0.0207586
0.016681265
0.036018143
0.036015885
0.036008605
0.035989127
0.035939416
0.035817597
0.035530799
0.034880794
0.033458783
0.030498445
0.025212142
0.019572905
0.018939949
0.021738147
0.016621966
0.03589347
0.03589061
0.035881581
0.035858069
0.035799718
0.035660549
0.035341095
0.034632853
0.033110301
0.029995409
0.024659951
0.019630248
0.019916664
0.02269449
0.016574063
0.035773545
0.035769987
0.035758968
0.035730991
0.035663366
0.035506152
0.035153669
0.034387441
0.032764498
0.029498968
0.024166686
0.019833637
0.020977366
0.023616003
0.016536152
0.035657992
0.035653635
0.035640383
0.035607524
0.035530063
0.035354279
0.034968643
0.03414475
0.03242103
0.029010211
0.023743688
0.020184173
0.022102784
0.024494228
0.016506745
0.035546464
0.035541207
0.035525479
0.035487349
0.035399574
0.035204869
0.034786172
0.033904896
0.032079439
0.028531302
0.023403466
0.020679734
0.023273104
0.025323802
0.016484372
0.035438647
0.035432386
0.035413948
0.035370193
0.035271718
0.035057919
0.034606436
0.03366791
0.03173923
0.028065808
0.023158914
0.021314706
0.0244691
0.026102089
0.016467662
0.035334251
0.035326887
0.035305516
0.035255823
0.03514637
0.034913479
0.03442962
0.033433727
0.031399978
0.02761899
0.023022388
0.022080016
0.025673169
0.026828633
0.016455398
0.035233012
0.035224448
0.035199939
0.03514405
0.035023453
0.034771643
0.034255909
0.033202186
0.031061475
0.027197981
0.02300477
0.022963453
0.026870127
0.027504567
0.016446543
0.035134691
0.035124836
0.035097009
0.035034724
0.034902936
0.03463254
0.03408547
0.032973033
0.030723902
0.0268118
0.023114633
0.023950249
0.02804767
0.028132079
0.016440248
0.035039067
0.03502784
0.034996542
0.034927732
0.034784832
0.034496333
0.033918446
0.032745938
0.030388047
0.026471168
0.023357597
0.025023883
0.02919649
0.028713982
0.016435834
0.034945943
0.034933275
0.034898386
0.034822996
0.034669194
0.034363211
0.033754944
0.032520522
0.030055535
0.0261881
0.023735915
0.026166982
0.030310099
0.029253407
0.016432778
0.034855141
0.034840974
0.034802418
0.034720475
0.034556112
0.034233382
0.033595029
0.032296402
0.029729078
0.025975302
0.024248334
0.02736225
0.031384439
0.029753594
0.016430685
0.034766502
0.034750797
0.03470854
0.034620164
0.034445715
0.034107066
0.033438713
0.032073259
0.029412693
0.025845435
0.02489019
0.028593298
0.032417399
0.030217765
0.016429265
0.034679887
0.034662624
0.034616684
0.034522088
0.034338162
0.033984492
0.033285952
0.031850929
0.029111867
0.025810314
0.025653732
0.029845306
0.033408314
0.030649046
0.016428312
0.034595176
0.034576356
0.034526808
0.034426308
0.034233647
0.033865888
0.033136649
0.03162952
0.028833633
0.02588017
0.026528619
0.031105458
0.034357529
0.031050409
0.016427682
0.034512269
0.034491917
0.034438897
0.034332917
0.034132389
0.033751478
0.032990657
0.031409556
0.028586515
0.02606301
0.027502554
0.032363144
0.035266042
0.031424648
0.01642728
0.034431083
0.034409252
0.034352965
0.034242042
0.034034637
0.033641469
0.032847794
0.031192142
0.028380315
0.026364176
0.028561979
0.033609948
0.036135248
0.031774346
0.016427047
0.034351558
0.034328331
0.034269052
0.034153841
0.033940664
0.03353605
0.032707869
0.030979151
0.028225759
0.026786091
0.029692789
0.034839473
0.03696677
0.032101874
0.01642695
0.034273652
0.034249145
0.03418723
0.034068505
0.03385076
0.033435383
0.03257072
0.030773393
0.028133998
0.027328221
0.030880994
0.036047068
0.037762344
0.032409381
0.016426974
0.034197344
0.03417171
0.034107598
0.033986257
0.033765237
0.033339598
0.032436275
0.030578782
0.028116033
0.027987225
0.032113285
0.037229503
0.038523755
0.032698799
0.016427117
0.034122637
0.034096065
0.034030285
0.033907355
0.033684417
0.033248788
0.032304627
0.030400435
0.028182108
0.028757251
0.033377461
0.038384663
0.039252794
0.032971855
0.016427382
0.034049553
0.034022276
0.033955452
0.033832084
0.033608631
0.033163012
0.032176131
0.030244714
0.028341141
0.029630359
0.034662708
0.039511266
0.039951228
0.033230086
0.016427779
0.03397814
0.033950437
0.033883292
0.033760766
0.033538214
0.0330823
0.032051523
0.030119155
0.028600248
0.030597022
0.035959728
0.040608641
0.040620777
0.033474856
0.016428318
0.033908471
0.033880668
0.033814033
0.033693749
0.033473498
0.033006661
0.031932061
0.030032291
0.028964397
0.031646653
0.037260745
0.041676559
0.0412631
0.033707373
0.01642901
0.033840644
0.033813121
0.033747936
0.033631414
0.033414804
0.032936115
0.031819661
0.029993369
0.029436212
0.032768131
0.038559406
0.042715108
0.04187978
0.033928705
0.016429865
0.033774787
0.03374798
0.033685299
0.033574167
0.033362441
0.032870717
0.031717044
0.030011962
0.030015935
0.033950285
0.039850629
0.043724612
0.042472314
0.034139802
0.016430892
0.033711057
0.03368546
0.033626458
0.03352244
0.033316699
0.032810615
0.031627853
0.03009752
0.030701524
0.035182302
0.041130416
0.044705564
0.043042114
0.034341502
0.016432097
0.033649643
0.033625814
0.033571787
0.033476689
0.033277844
0.032756113
0.031556734
0.030258904
0.031488879
0.036454045
0.042395664
0.045658587
0.043590498
0.034534553
0.016433487
0.03359077
0.033569333
0.033521698
0.033437387
0.03324612
0.032707756
0.031509357
0.030503939
0.032372145
0.037756267
0.043643995
0.046584395
0.044118699
0.034719618
0.016435064
0.033534699
0.033516348
0.033476647
0.033405019
0.033221753
0.032666433
0.031492359
0.030839028
0.033344088
0.039080735
0.044873612
0.04748377
0.044627864
0.034897289
0.016436831
0.033481731
0.033467235
0.033437127
0.033380083
0.033204961
0.032633491
0.031513197
0.031268866
0.034396492
0.040420265
0.046083176
0.048357533
0.045119059
0.035068096
0.016438788
0.033432211
0.033422413
0.033403675
0.033363076
0.033195977
0.032610856
0.031579923
0.031796265
0.035520555
0.04176869
0.047271717
0.04920653
0.045593277
0.035232514
0.016440933
0.033386531
0.033382352
0.033376864
0.033354497
0.033195078
0.03260115
0.031700872
0.032422091
0.036707256
0.043120788
0.048438563
0.050031614
0.046051438
0.035390968
0.016443266
0.033345134
0.033347573
0.033357309
0.033354836
0.033202628
0.032607792
0.031884307
0.033145319
0.037947676
0.044472181
0.049583282
0.050833633
0.046494397
0.035543844
0.016445782
0.033308518
0.033318652
0.033345661
0.033364571
0.033219143
0.032635061
0.032138042
0.033963178
0.039233252
0.045819223
0.050705639
0.051613421
0.046922952
0.035691489
0.016448478
0.033277237
0.03329622
0.033342601
0.033384174
0.033245363
0.032688109
0.03246907
0.034871382
0.040555968
0.047158893
0.051805561
0.052371796
0.04733784
0.035834219
0.016451351
0.033251914
0.033280969
0.033348845
0.033414106
0.033282345
0.032772916
0.032883247
0.035864399
0.041908473
0.048488702
0.052883101
0.053109548
0.047739749
0.03597232
0.016454394
0.033233235
0.033273652
0.033365128
0.033454835
0.033331563
0.032896165
0.033385033
0.03693576
0.043284142
0.049806605
0.05393842
0.053827443
0.048129319
0.036106053
0.016457603
0.033221962
0.033275082
0.033392211
0.033506851
0.033395016
0.03306505
0.033977334
0.038078364
0.044677087
0.051110936
0.054971758
0.05452622
0.048507145
0.036235658
0.016460974
0.033218934
0.033286139
0.033430864
0.033570696
0.033475331
0.033287021
0.034661421
0.039284779
0.046082132
0.052400343
0.055983419
0.055206587
0.048873783
0.036361356
0.016464499
0.033225073
0.033307763
0.033481871
0.033647008
0.033575845
0.033569484
0.035436951
0.040547492
0.047494763
0.053673746
0.056973755
0.055869227
0.049229756
0.036483354
0.016468174
0.033241386
0.033340956
0.033546021
0.033736578
0.03370066
0.033919477
0.036302067
0.041859138
0.048911069
0.054930293
0.057943151
0.056514769
0.049575443
0.036601083
0.01647199
0.033268972
0.03338678
0.033624112
0.03384042
0.033854651
0.034343362
0.037253558
0.043212658
0.050327673
0.056169324
0.058892009
0.057143808
0.049911242
0.036714879
0.016475942
0.033309024
0.033446355
0.033716953
0.03395986
0.03404342
0.034846538
0.038287076
0.044601425
0.051741668
0.05739034
0.059820746
0.057756912
0.050237556
0.036825046
0.016480019
0.03336283
0.033520853
0.033825376
0.034096628
0.034273182
0.035433219
0.039397376
0.046019315
0.05315056
0.05859298
0.060729792
0.058354636
0.050554797
0.036931851
0.016484214
0.033431775
0.033611491
0.033950257
0.034252954
0.034550592
0.036106274
0.040578559
0.047460739
0.054552213
0.059776994
0.061619575
0.058937455
0.050862924
0.037035581
0.016488518
0.033517344
0.033719533
0.034092549
0.034431665
0.034882516
0.036867154
0.041824324
0.048920651
0.055944808
0.060942229
0.062490517
0.059505812
0.051162152
0.037136396
0.016492923
0.033621114
0.033846282
0.034253324
0.03463625
0.035275767
0.037715885
0.04312818
0.050394528
0.057326794
0.062088607
0.063343037
0.060060164
0.051452982
0.037234385
0.016497425
0.033744758
0.03399308
0.034433835
0.034870907
0.035736814
0.038651139
0.04448364
0.051878339
0.05869686
0.063216116
0.064177553
0.060600974
0.051735851
0.037329654
0.016502019
0.033890035
0.034161309
0.034635592
0.035140534
0.036271505
0.039670361
0.045884371
0.053368507
0.060053901
0.064324795
0.064994472
0.061128573
0.052011163
0.037422331
0.0165067
0.034058787
0.034352405
0.034860441
0.035450672
0.036884818
0.040769941
0.047324308
0.054861871
0.06139699
0.065414727
0.065794144
0.061642948
0.052279305
0.037512563
0.016511467
0.034252938
0.034567873
0.035110665
0.035807392
0.037580648
0.041945411
0.048797738
0.056355639
0.062725357
0.066486018
0.06657693
0.062144667
0.052540483
0.037600453
0.016516317
0.034474482
0.034809314
0.035389066
0.036217115
0.038361673
0.043191655
0.050299338
0.057847355
0.064038357
0.067538804
0.067343214
0.062634244
0.052794917
0.037686088
0.016521247
0.034725489
0.035078475
0.035699051
0.036686391
0.039229275
0.044503117
0.051824204
0.059334858
0.065335461
0.068573251
0.068093395
0.063112137
0.053042836
0.037769546
0.016526253
0.035008111
0.035377301
0.036044683
0.037221646
0.040183534
0.045873992
0.05336785
0.060816256
0.066616244
0.069589501
0.06882737
0.063578807
0.05328449
0.037850923
0.016531331
0.035324589
0.035708009
0.036430696
0.037828911
0.041223287
0.047298392
0.054926197
0.06228989
0.06788035
0.070587708
0.069545619
0.064034565
0.053520087
0.037930306
0.016536479
0.035677286
0.036073175
0.036862463
0.038513563
0.042346233
0.048770487
0.056495549
0.063754305
0.069127488
0.071568061
0.070248613
0.064479708
0.053749814
0.03800777
0.016541693
0.036068722
0.036475821
0.037345903
0.039280098
0.043549088
0.05028461
0.05807257
0.065208225
0.070357433
0.072530785
0.070936787
0.064914534
0.05397385
0.03808338
0.016546969
0.036501629
0.036919504
0.037887338
0.040131949
0.044827756
0.051835338
0.059654259
0.066650547
0.071569999
0.073475727
0.071610523
0.06533934
0.054192382
0.038157196
0.016552305
0.036979023
0.037408384
0.038493284
0.041071361
0.046177514
0.053417545
0.061237917
0.068080292
0.072765014
0.074403187
0.07227017
0.065754388
0.05440559
0.03822928
0.016557696
0.037504284
0.037947268
0.039170216
0.042099338
0.047593196
0.055026426
0.062821116
0.069496595
0.073942364
0.075313492
0.072916046
0.066159927
0.05461363
0.038299687
0.01656314
0.038081239
0.038541606
0.039924297
0.043215644
0.049069364
0.056657518
0.064401678
0.070898702
0.075101909
0.076206923
0.073548448
0.066556199
0.054816651
0.038368466
0.016568632
0.038714234
0.039197428
0.040761121
0.04441887
0.050600456
0.058306694
0.065977655
0.072285945
0.076243438
0.077083725
0.074167652
0.066943444
0.055014793
0.038435662
0.01657417
0.039408189
0.039921223
0.041685465
0.045706545
0.052180912
0.05997015
0.067547278
0.073657701
0.077366974
0.077944204
0.074773921
0.067321887
0.055208188
0.038501318
0.016579751
0.040168598
0.040719751
0.042701084
0.047075277
0.053805273
0.061644389
0.069108947
0.075013441
0.078472605
0.078788615
0.075367507
0.067691734
0.055396962
0.038565472
0.01658537
0.041001481
0.041599794
0.04381057
0.04852092
0.05546826
0.063326225
0.07066126
0.076352561
0.07956026
0.079617161
0.075948661
0.068053182
0.055581228
0.03862816
0.016591025
0.041913255
0.042567874
0.045015258
0.050038745
0.057164817
0.065012719
0.072202873
0.077674599
0.080630132
0.080430046
0.076517619
0.068406417
0.055761093
0.038689414
0.016596712
0.042910531
0.043629948
0.046315207
0.051623604
0.058890143
0.066701164
0.073732566
0.078979243
0.081682352
0.08122747
0.077074598
0.068751613
0.055936658
0.038749263
0.016602429
0.043999834
0.044791105
0.047709235
0.053270089
0.060639728
0.068389125
0.075249201
0.080266023
0.082716971
0.08200963
0.077619803
0.069088931
0.056108014
0.038807734
0.016608172
0.045187273
0.046055294
0.049195005
0.054972657
0.062409322
0.070074286
0.07675168
0.081534845
0.083734048
0.082776708
0.078153429
0.069418522
0.056275246
0.038864851
0.016613937
0.046478163
0.047425104
0.050769147
0.056725735
0.064194937
0.071754502
0.07823906
0.08278558
0.084733652
0.083528872
0.078675655
0.069740525
0.056438431
0.038920634
0.016619723
0.047876663
0.048901598
0.052427403
0.058523831
0.06599289
0.073427805
0.079710321
0.084018009
0.085715844
0.084266277
0.079186644
0.070055068
0.056597641
0.038975104
0.016625525
0.049385435
0.05048423
0.054164773
0.060361544
0.067799637
0.075092238
0.081164974
0.085231947
0.086680677
0.084989064
0.079686548
0.070362268
0.05675294
0.039028275
0.016631341
0.051005377
0.05217083
0.055975685
0.062233675
0.069611918
0.076745849
0.082602396
0.08642722
0.087628191
0.085697359
0.080175505
0.07066223
0.056904384
0.039080162
0.016637167
0.052735442
0.053957648
0.057854097
0.064135131
0.071426508
0.078387248
0.084021978
0.087603653
0.088558412
0.086391272
0.080653634
0.07095505
0.057052026
0.039130777
0.016643001
0.054572576
0.05583948
0.059793663
0.066061029
0.073240178
0.080015143
0.085423145
0.088761065
0.089471354
0.087070894
0.081121045
0.07124081
0.05719591
0.039180128
0.016648839
0.05651176
0.057809804
0.061787731
0.068006449
0.075050357
0.081628275
0.086805338
0.089899268
0.090367013
0.087736301
0.081577828
0.071519585
0.057336073
0.039228223
0.016654679
0.058546162
0.059860964
0.063829435
0.069966601
0.076854672
0.083225447
0.088168012
0.091018063
0.091245366
0.08838755
0.082024061
0.071791436
0.057472549
0.039275066
0.016660517
0.060667316
0.061984249
0.065911633
0.071937321
0.078650871
0.084805511
0.089510628
0.092117238
0.092106371
0.089024678
0.082459803
0.072056414
0.057605362
0.03932066
0.01666635
0.062865334
0.064170264
0.068027498
0.073914601
0.080436805
0.086367361
0.090832648
0.093196565
0.092949967
0.089647702
0.082885099
0.072314557
0.057734532
0.039365004
0.016672175
0.065129362
0.066409217
0.070170247
0.075894572
0.082210413
0.087909925
0.092133533
0.094255799
0.093776068
0.090256619
0.083299978
0.072565895
0.057860071
0.039408096
0.016677989
0.067447966
0.068691099
0.072333187
0.077873492
0.083969716
0.089432158
0.093412741
0.095294676
0.094584569
0.090851407
0.083704451
0.072810444
0.057981986
0.039449932
0.016683788
0.069809482
0.07100589
0.074509748
0.079847736
0.085712798
0.090933037
0.094669722
0.096312913
0.09537534
0.091432021
0.084098514
0.073048209
0.058100277
0.039490503
0.01668957
0.072202334
0.073343734
0.07669352
0.081813786
0.087437806
0.09241156
0.095903921
0.097310208
0.096148229
0.091998395
0.084482144
0.073279183
0.058214937
0.039529801
0.01669533
0.074615288
0.075695098
0.078878292
0.083768231
0.089142936
0.09386674
0.097114777
0.098286243
0.096903064
0.092550445
0.084855304
0.073503347
0.058325952
0.039567813
0.016701065
0.077037665
0.078050901
0.081058092
0.085707765
0.090826434
0.095297607
0.098301726
0.099240683
0.097639652
0.093088066
0.08521794
0.073720674
0.058433302
0.039604524
0.016706771
0.07945949
0.080402612
0.083227221
0.087629196
0.092486593
0.096703209
0.099464201
0.10017318
0.09835778
0.093611133
0.085569982
0.073931122
0.058536962
0.039639919
0.016712444
0.081871591
0.082742325
0.085380291
0.089529447
0.094121756
0.098082613
0.10060163
0.10108337
0.099057222
0.094119507
0.085911345
0.07413464
0.058636899
0.039673977
0.016718081
0.084265657
0.085062804
0.087512248
0.091405577
0.095730317
0.099434908
0.10171347
0.1019709
0.099737737
0.094613032
0.086241932
0.074331168
0.058733075
0.039706676
0.016723677
0.086634255
0.087357506
0.089618407
0.093254784
0.097310728
0.10075921
0.10279915
0.10283539
0.10039907
0.095091542
0.086561634
0.074520634
0.058825445
0.039737994
0.016729228
0.088970824
0.089620586
0.091694458
0.095074426
0.098861506
0.10205467
0.10385815
0.10367648
0.10104098
0.095554858
0.086870331
0.074702961
0.058913962
0.039767904
0.016734728
0.09126964
0.091846884
0.093736488
0.096862029
0.10038124
0.10332046
0.10488994
0.10449382
0.1016632
0.096002797
0.087167895
0.074878063
0.058998572
0.039796378
0.016740174
0.093525773
0.0940319
0.095740975
0.098615301
0.1018686
0.10455582
0.10589404
0.10528705
0.10226547
0.096435172
0.087454193
0.075045851
0.059079217
0.039823389
0.016745561
0.09573503
0.096171757
0.097704796
0.10033214
0.10332234
0.10576002
0.10686999
0.10605587
0.10284756
0.0968518
0.087729091
0.075206229
0.05915584
0.039848906
0.016750882
0.097893895
0.098263166
0.09962521
0.10201065
0.10474131
0.10693239
0.10781736
0.10679995
0.10340922
0.097252498
0.08799245
0.075359101
0.059228379
0.039872899
0.016756134
0.099999471
0.10030338
0.10149985
0.10364912
0.10612447
0.10807233
0.10873577
0.10751903
0.10395025
0.097637095
0.088244141
0.075504373
0.059296771
0.039895337
0.01676131
0.10204941
0.10229014
0.10332671
0.10524605
0.10747087
0.10917927
0.10962489
0.10821287
0.10447046
0.098005433
0.088484034
0.07564195
0.059360957
0.03991619
0.016766405
0.10404187
0.10422164
0.10510412
0.10680016
0.1087797
0.11025275
0.11048442
0.10888127
0.10496967
0.098357369
0.088712015
0.075771743
0.059420878
0.039935428
0.016771414
0.10597543
0.10609649
0.10683071
0.10831034
0.11005023
0.11129235
0.11131412
0.10952406
0.10544775
0.098692782
0.088927977
0.07589367
0.059476479
0.039953024
0.01677633
0.10784908
0.10791364
0.10850543
0.1097757
0.11128188
0.11229775
0.11211382
0.11014111
0.1059046
0.099011575
0.089131832
0.076007659
0.059527708
0.039968952
0.016781148
0.10966215
0.10967239
0.11012747
0.11119552
0.11247415
0.11326868
0.11288339
0.11073237
0.10634014
0.099313674
0.089323508
0.076113647
0.059574522
0.039983189
0.016785862
0.11141425
0.11137232
0.1116963
0.11256927
0.11362669
0.11420497
0.11362276
0.11129779
0.10675436
0.099599039
0.089502954
0.076211585
0.059616883
0.039995716
0.016790467
0.11310528
0.11301323
0.11321159
0.11389656
0.11473924
0.1151065
0.11433193
0.11183739
0.10714726
0.099867658
0.089670143
0.07630144
0.059654765
0.040006518
0.016794957
0.11473535
0.1145952
0.11467321
0.11517721
0.11581164
0.11597326
0.11501093
0.11235126
0.1075189
0.10011955
0.08982507
0.076383194
0.059688148
0.040015583
0.016799326
0.11630477
0.11611845
0.11608122
0.11641113
0.11684387
0.11680527
0.11565988
0.1128395
0.10786936
0.10035478
0.089967758
0.076456848
0.059717025
0.040022905
0.01680357
0.11781402
0.11758341
0.11743586
0.11759841
0.11783597
0.11760267
0.11627895
0.11330229
0.10819879
0.10057344
0.090098256
0.076522422
0.059741401
0.040028484
0.016807684
0.11926374
0.11899063
0.11873748
0.11873924
0.1187881
0.11836563
0.11686834
0.11373983
0.10850736
0.10077564
0.090216643
0.076579956
0.059761293
0.040032325
0.016811663
0.12065469
0.12034079
0.11998659
0.11983392
0.1197005
0.11909441
0.11742832
0.11415239
0.10879529
0.10096155
0.090323022
0.076629511
0.059776731
0.040034438
0.016815503
0.12198772
0.1216347
0.12118378
0.12088287
0.12057349
0.11978932
0.11795923
0.11454027
0.10906283
0.10113138
0.090417528
0.076671167
0.059787758
0.040034841
0.016819199
0.1232638
0.12287325
0.12232977
0.12188661
0.12140748
0.12045074
0.11846143
0.11490382
0.10931029
0.10128534
0.090500323
0.076705027
0.05979443
0.040033557
0.01682275
0.12448395
0.12405741
0.12342534
0.12284571
0.12220293
0.12107909
0.11893533
0.11524341
0.10953799
0.1014237
0.090571594
0.076731214
0.059796817
0.040030616
0.016826151
0.1256493
0.12518822
0.12447137
0.12376086
0.12296038
0.12167486
0.11938138
0.11555946
0.10974629
0.10154674
0.090631555
0.076749871
0.059795003
0.040026053
0.016829401
0.12676097
0.12626677
0.12546879
0.12463276
0.12368042
0.12223858
0.11980009
0.11585245
0.1099356
0.1016548
0.090680447
0.076761161
0.059789084
0.040019909
0.016832497
0.12782019
0.1272942
0.12641857
0.12546222
0.12436369
0.12277081
0.12019198
0.11612284
0.11010633
0.10174821
0.090718531
0.076765263
0.059779166
0.040012232
0.016835438
0.12882817
0.12827171
0.12732176
0.12625008
0.1250109
0.12327216
0.12055761
0.11637115
0.11025894
0.10182735
0.090746092
0.076762377
0.059765371
0.040003073
0.016838222
0.1297862
0.1292005
0.12817943
0.12699722
0.12562276
0.12374329
0.12089757
0.11659793
0.1103939
0.10189261
0.090763433
0.076752716
0.059747827
0.03999249
0.01684085
0.13069555
0.13008182
0.12899267
0.12770455
0.12620005
0.12418486
0.12121249
0.11680373
0.1105117
0.1019444
0.090770878
0.076736509
0.059726675
0.039980544
0.016843322
0.13155753
0.13091691
0.12976262
0.12837304
0.12674358
0.12459758
0.12150299
0.11698914
0.11061287
0.10198316
0.090768764
0.076713998
0.059702064
0.039967299
0.016845638
0.13237345
0.13170706
0.13049042
0.12900366
0.12725417
0.12498217
0.12176974
0.11715475
0.11069792
0.10200934
0.090757444
0.076685436
0.05967415
0.039952826
0.016847799
0.13314465
0.13245354
0.13117724
0.12959741
0.12773267
0.12533938
0.12201342
0.11730118
0.11076741
0.10202339
0.090737283
0.076651088
0.059643096
0.039937194
0.016849806
0.13387243
0.13315763
0.13182425
0.1301553
0.12817996
0.12566998
0.1222347
0.11742906
0.11082189
0.10202578
0.090708657
0.076611226
0.059609072
0.039920479
0.016851662
0.13455812
0.13382062
0.13243262
0.13067837
0.1285969
0.12597473
0.1224343
0.117539
0.11086191
0.10201699
0.090671946
0.076566128
0.059572251
0.039902756
0.016853369
0.13520305
0.1344438
0.13300354
0.13116765
0.12898441
0.12625444
0.12261291
0.11763167
0.11088806
0.10199751
0.090627543
0.07651608
0.059532809
0.039884101
0.01685493
0.13580853
0.13502843
0.1335382
0.13162418
0.12934338
0.12650988
0.12277125
0.1177077
0.11090089
0.10196783
0.090575839
0.076461368
0.059490926
0.039864592
0.016856347
0.13637585
0.13557579
0.13403776
0.13204901
0.12967472
0.12674186
0.12291005
0.11776773
0.110901
0.10192844
0.090517232
0.076402285
0.059446783
0.039844308
0.016857624
0.13690632
0.13608714
0.1345034
0.13244317
0.12997934
0.12695119
0.12303001
0.11781242
0.11088894
0.10187983
0.090452119
0.076339121
0.05940056
0.039823325
0.016858766
0.1374012
0.13656372
0.13493628
0.13280771
0.13025816
0.12713866
0.12313185
0.11784241
0.1108653
0.1018225
0.090380896
0.076272168
0.059352437
0.03980172
0.016859774
0.13786175
0.13700676
0.13533755
0.13314366
0.13051206
0.12730507
0.1232163
0.11785835
0.11083064
0.10175692
0.09030396
0.076201715
0.059302594
0.03977957
0.016860655
0.13828923
0.13741747
0.13570836
0.13345204
0.13074197
0.12745122
0.12328406
0.11786087
0.11078554
0.1016836
0.090221701
0.076128049
0.059251208
0.039756949
0.016861411
0.13868484
0.13779706
0.13604981
0.13373386
0.13094878
0.1275779
0.12333583
0.11785061
0.11073055
0.101603
0.090134506
0.076051454
0.059198452
0.03973393
0.016862048
0.13904981
0.13814669
0.13636303
0.13399013
0.13113336
0.12768589
0.12337233
0.11782819
0.11066622
0.1015156
0.090042758
0.075972208
0.059144497
0.039710583
0.016862571
0.13938531
0.13846754
0.1366491
0.13422185
0.13129661
0.12777597
0.12339423
0.11779423
0.1105931
0.10142187
0.089946829
0.075890583
0.059089508
0.039686976
0.016862983
0.13969251
0.13876072
0.1369091
0.13442997
0.13143937
0.12784891
0.12340222
0.11774934
0.11051173
0.10132226
0.089847087
0.075806846
0.059033648
0.039663176
0.016863289
0.13997253
0.13902737
0.13714407
0.13461547
0.13156252
0.12790546
0.12339697
0.11769412
0.11042263
0.10121722
0.08974389
0.075721257
0.058977071
0.039639246
0.016863495
0.14022651
0.13926856
0.13735505
0.13477927
0.13166688
0.12794637
0.12337914
0.11762914
0.11032631
0.10110718
0.089637587
0.075634067
0.05891993
0.039615245
0.016863605
0.14045552
0.13948537
0.13754305
0.13492232
0.13175328
0.12797235
0.12334938
0.11755499
0.11022328
0.10099258
0.089528518
0.07554552
0.058862369
0.039591232
0.016863624
0.14066063
0.13967884
0.13770905
0.13504551
0.13182253
0.12798413
0.12330832
0.11747222
0.11011402
0.10087382
0.089417011
0.07545585
0.058804526
0.03956726
0.016863557
0.14084289
0.13984999
0.13785404
0.13514972
0.13187543
0.12798242
0.12325658
0.11738139
0.10999902
0.1007513
0.089303385
0.075365285
0.058746535
0.039543381
0.016863408
0.14100331
0.13999981
0.13797895
0.13523584
0.13191274
0.12796789
0.12319478
0.11728303
0.10987874
0.10062543
0.089187947
0.075274041
0.05868852
0.039519643
0.016863183
0.14114288
0.14012928
0.1380847
0.13530469
0.13193523
0.12794123
0.1231235
0.11717767
0.10975363
0.10049656
0.089070992
0.075182326
0.058630603
0.03949609
0.016862885
0.14126257
0.14023935
0.13817219
0.13535712
0.13194364
0.12790308
0.12304332
0.1170658
0.10962413
0.10036508
0.088952805
0.075090338
0.058572896
0.039472766
0.016862519
0.1413633
0.14033092
0.13824229
0.13539392
0.1319387
0.12785409
0.12295481
0.11694792
0.10949066
0.10023132
0.088833657
0.074998265
0.058515504
0.039449709
0.01686209
0.14144601
0.1404049
0.13829587
0.13541589
0.1319211
0.12779488
0.12285851
0.11682451
0.10935362
0.10009563
0.08871381
0.074906286
0.058458528
0.039426953
0.016861602
0.14151156
0.14046215
0.13833374
0.13542377
0.13189153
0.12772606
0.12275496
0.11669603
0.10921343
0.099958335
0.088593511
0.074814571
0.058402061
0.039404533
0.016861059
0.14156083
0.14050353
0.13835671
0.13541833
0.13185067
0.12764822
0.12264467
0.11656293
0.10907045
0.099819738
0.088472997
0.074723278
0.05834619
0.039382479
0.016860465