/*--------------------------------*- C++ -*----------------------------------*\
| =========                 |                                                 |
| \\      /  F ield         | OpenFOAM: The Open Source CFD Toolbox           |
|  \\    /   O peration     | Version:  2506                                  |
|   \\  /    A nd           | Website:  www.openfoam.com                      |
|    \\/     M anipulation  |                                                 |
\*---------------------------------------------------------------------------*/
FoamFile
{
    version     2.0;
    format      ascii;
    arch        "LSB;label=32;scalar=64";
    class       volScalarField;
    location    "9000/water";
    object      nut;
}
// * * * * * * * * * * * * * * * * * * * * * * * * * * * * * * * * * * * * * //

dimensions      [0 2 -1 0 0 0 0];

internalField   nonuniform List<scalar> 
6000
(
4.1367308e-05
4.1367285e-05
4.1367292e-05
4.1367317e-05
4.136735e-05
4.1367394e-05
4.1367445e-05
4.1367477e-05
4.1367269e-05
4.1365028e-05
4.1345959e-05
4.1185428e-05
3.984402e-05
3.0619188e-05
1.3489073e-05
4.0862094e-05
4.0862089e-05
4.0862128e-05
4.0862206e-05
4.086231e-05
4.0862441e-05
4.0862573e-05
4.0862525e-05
4.0861044e-05
4.0849566e-05
4.0769767e-05
4.0233638e-05
3.6930279e-05
2.3809326e-05
1.5168915e-05
4.0408426e-05
4.0408431e-05
4.0408496e-05
4.0408619e-05
4.040878e-05
4.0408965e-05
4.0409066e-05
4.0408421e-05
4.0403049e-05
4.0369314e-05
4.0169922e-05
3.9053519e-05
3.3674827e-05
1.9530254e-05
1.6389796e-05
3.9998212e-05
3.9998216e-05
3.9998298e-05
3.9998456e-05
3.9998657e-05
3.9998846e-05
3.9998699e-05
3.999645e-05
3.9982628e-05
3.9907469e-05
3.9519874e-05
3.7665236e-05
3.0439418e-05
1.6813321e-05
1.7227565e-05
3.9625122e-05
3.9625133e-05
3.9625231e-05
3.9625419e-05
3.9625638e-05
3.9625739e-05
3.9624947e-05
3.9619415e-05
3.959045e-05
3.9450123e-05
3.8807695e-05
3.6131535e-05
2.7477322e-05
1.5090355e-05
1.7763765e-05
3.9283984e-05
3.9284007e-05
3.9284119e-05
3.9284324e-05
3.9284521e-05
3.9284369e-05
3.9282279e-05
3.9270986e-05
3.9218236e-05
3.8986823e-05
3.8033859e-05
3.4524992e-05
2.4897642e-05
1.400968e-05
1.8072537e-05
3.8970512e-05
3.8970546e-05
3.8970668e-05
3.8970871e-05
3.8970973e-05
3.8970306e-05
3.8965958e-05
3.8945612e-05
3.8858945e-05
3.8510812e-05
3.7207229e-05
3.2908964e-05
2.2716803e-05
1.3360893e-05
1.8215906e-05
3.8681158e-05
3.8681199e-05
3.8681323e-05
3.8681493e-05
3.8681392e-05
3.8679823e-05
3.8671916e-05
3.8638477e-05
3.8506919e-05
3.801881e-05
3.6341286e-05
3.1331233e-05
2.0908463e-05
1.30184e-05
1.8243034e-05
3.841296e-05
3.8413006e-05
3.8413119e-05
3.8413209e-05
3.8412743e-05
3.8409742e-05
3.8396631e-05
3.8345462e-05
3.8157885e-05
3.7510375e-05
3.5450851e-05
2.9823717e-05
1.9431977e-05
1.2906145e-05
1.8191421e-05
3.816343e-05
3.8163474e-05
3.8163556e-05
3.8163497e-05
3.8162446e-05
3.8157327e-05
3.8137042e-05
3.8063106e-05
3.7808869e-05
3.6987081e-05
3.454982e-05
2.8405299e-05
1.8246291e-05
1.2977275e-05
1.8088864e-05
3.7930458e-05
3.7930491e-05
3.7930513e-05
3.793021e-05
3.7928279e-05
3.7920197e-05
3.7890497e-05
3.7788579e-05
3.7458031e-05
3.6451747e-05
3.3649968e-05
2.7085594e-05
1.7315649e-05
1.3202297e-05
1.7955551e-05
3.7712242e-05
3.7712253e-05
3.7712173e-05
3.7711499e-05
3.7708322e-05
3.7696279e-05
3.7654711e-05
3.7519641e-05
3.7104472e-05
3.5907781e-05
3.2760531e-05
2.58684e-05
1.6611172e-05
1.3561911e-05
1.7805936e-05
3.7507239e-05
3.7507212e-05
3.7506973e-05
3.7505765e-05
3.7500895e-05
3.7483757e-05
3.7427744e-05
3.725459e-05
3.6748014e-05
3.5358688e-05
3.188827e-05
2.4754408e-05
1.6110613e-05
1.4042468e-05
1.7650267e-05
3.7314115e-05
3.7314026e-05
3.7313557e-05
3.7311613e-05
3.7304527e-05
3.7281048e-05
3.7207963e-05
3.6992195e-05
3.6389e-05
3.4807726e-05
3.1037799e-05
2.3743174e-05
1.5797412e-05
1.4632945e-05
1.7495753e-05
3.7131708e-05
3.713153e-05
3.7130739e-05
3.7127817e-05
3.7117921e-05
3.7086772e-05
3.6994026e-05
3.6731629e-05
3.6028109e-05
3.4257704e-05
3.0212055e-05
2.2834479e-05
1.5659519e-05
1.5322866e-05
1.7347422e-05
3.6959006e-05
3.6958703e-05
3.6957478e-05
3.6953298e-05
3.6939934e-05
3.6899735e-05
3.6784847e-05
3.64724e-05
3.5666203e-05
3.3710866e-05
2.9412801e-05
2.2029191e-05
1.5688155e-05
1.6100896e-05
1.7208725e-05
3.6795116e-05
3.6794645e-05
3.6792855e-05
3.6787094e-05
3.6769555e-05
3.6718912e-05
3.6579574e-05
3.6214282e-05
3.5304204e-05
3.3168861e-05
2.8641157e-05
2.132974e-05
1.587657e-05
1.6954009e-05
1.7081944e-05
3.6639251e-05
3.6638559e-05
3.6636051e-05
3.6628355e-05
3.6605895e-05
3.6543431e-05
3.637756e-05
3.5957252e-05
3.4942996e-05
3.2632763e-05
2.789813e-05
2.0740252e-05
1.6218811e-05
1.786721e-05
1.6968459e-05
3.6490711e-05
3.6489738e-05
3.6486338e-05
3.6476321e-05
3.6448171e-05
3.6372563e-05
3.6178336e-05
3.5701433e-05
3.458336e-05
3.2103134e-05
2.7185145e-05
2.0266398e-05
1.6708561e-05
1.8823777e-05
1.6868922e-05
3.6348869e-05
3.6347546e-05
3.6343063e-05
3.6330312e-05
3.62957e-05
3.6205706e-05
3.5981587e-05
3.5447046e-05
3.4225914e-05
3.1580129e-05
2.6504571e-05
1.991497e-05
1.7338099e-05
1.9805967e-05
1.6783375e-05
3.6213165e-05
3.6211415e-05
3.6205638e-05
3.6189726e-05
3.6147887e-05
3.6042373e-05
3.5787125e-05
3.5194368e-05
3.3871092e-05
3.1063631e-05
2.5860194e-05
1.9693245e-05
1.8097487e-05
2.0796033e-05
1.6711346e-05
3.6083093e-05
3.6080831e-05
3.6073537e-05
3.6054024e-05
3.6004223e-05
3.5882185e-05
3.5594869e-05
3.4943693e-05
3.3519118e-05
3.0553441e-05
2.5257605e-05
1.96082e-05
1.8974102e-05
2.1777346e-05
1.6651939e-05
3.5958194e-05
3.5955329e-05
3.5946284e-05
3.592273e-05
3.5864274e-05
3.5724854e-05
3.5404824e-05
3.4695304e-05
3.3170007e-05
3.0049498e-05
2.4704419e-05
1.9665646e-05
1.9952579e-05
2.2735414e-05
1.660395e-05
3.5838054e-05
3.5834489e-05
3.582345e-05
3.5795422e-05
3.5727676e-05
3.5570179e-05
3.521706e-05
3.444945e-05
3.2823581e-05
2.9552162e-05
2.4210265e-05
1.9869402e-05
2.1015193e-05
2.3658589e-05
1.6565971e-05
3.5722292e-05
3.5717927e-05
3.5704651e-05
3.5671733e-05
3.5594133e-05
3.5418031e-05
3.50317e-05
3.4206321e-05
3.2479493e-05
2.9062524e-05
2.3786503e-05
2.022057e-05
2.2142641e-05
2.4538397e-05
1.6536511e-05
3.5610563e-05
3.5605296e-05
3.558954e-05
3.5551342e-05
3.5463408e-05
3.5268352e-05
3.48489e-05
3.3966035e-05
3.2137286e-05
2.858275e-05
2.3445668e-05
2.0717024e-05
2.3315071e-05
2.5369467e-05
1.6514097e-05
3.5502551e-05
3.549628e-05
3.5477808e-05
3.5433974e-05
3.5335321e-05
3.5121137e-05
3.466884e-05
3.3728621e-05
3.1796463e-05
2.8116417e-05
2.3200676e-05
2.1353141e-05
2.4513224e-05
2.6149157e-05
1.6497357e-05
3.5397967e-05
3.539059e-05
3.536918e-05
3.5319398e-05
3.5209747e-05
3.4976437e-05
3.4491706e-05
3.3494016e-05
3.14566e-05
2.7668794e-05
2.3063903e-05
2.2119832e-05
2.5719465e-05
2.6877011e-05
1.6485071e-05
3.5296546e-05
3.5287966e-05
3.5263414e-05
3.5207424e-05
3.5086609e-05
3.4834344e-05
3.4317681e-05
3.3262058e-05
3.1117487e-05
2.7247026e-05
2.3046253e-05
2.3004861e-05
2.6918581e-05
2.7554165e-05
1.6476201e-05
3.5198047e-05
3.5188175e-05
3.5160297e-05
3.5097901e-05
3.4965875e-05
3.4694991e-05
3.4146934e-05
3.3032492e-05
3.0779305e-05
2.6860148e-05
2.3156315e-05
2.3993438e-05
2.8098247e-05
2.8182808e-05
1.6469894e-05
3.5102251e-05
3.5091004e-05
3.5059649e-05
3.4990715e-05
3.4847558e-05
3.4558539e-05
3.3979609e-05
3.2804987e-05
3.0442844e-05
2.6518902e-05
2.3399716e-05
2.5069007e-05
2.9249139e-05
2.8765761e-05
1.6465472e-05
3.5008959e-05
3.4996268e-05
3.4961317e-05
3.488579e-05
3.4731711e-05
3.4425177e-05
3.3815813e-05
3.2579164e-05
3.0109732e-05
2.6235323e-05
2.3778717e-05
2.6214168e-05
3.0364755e-05
2.9306158e-05
1.646241e-05
3.4917993e-05
3.4903801e-05
3.4865175e-05
3.4783085e-05
3.4618425e-05
3.4295113e-05
3.3655609e-05
3.235464e-05
2.9782687e-05
2.6022142e-05
2.429206e-05
2.7411591e-05
3.1441033e-05
2.9807247e-05
1.6460314e-05
3.4829195e-05
3.4813462e-05
3.4771128e-05
3.4682592e-05
3.4507829e-05
3.416857e-05
3.3499011e-05
3.2131095e-05
2.9465731e-05
2.589204e-05
2.4935073e-05
2.8644859e-05
3.2475855e-05
3.0272255e-05
1.6458891e-05
3.4742423e-05
3.4725129e-05
3.4679107e-05
3.4584339e-05
3.4400083e-05
3.4045774e-05
3.3345975e-05
3.1908364e-05
2.9164363e-05
2.5856857e-05
2.5699992e-05
2.9899124e-05
3.3468558e-05
3.0704314e-05
1.6457936e-05
3.465756e-05
3.4638706e-05
3.4589068e-05
3.4488387e-05
3.4295378e-05
3.3926957e-05
3.3196403e-05
3.1686556e-05
2.8885627e-05
2.5926838e-05
2.6576457e-05
3.1161549e-05
3.4419484e-05
3.1106401e-05
1.6457305e-05
3.4574503e-05
3.4554114e-05
3.4500999e-05
3.4394828e-05
3.4193938e-05
3.381234e-05
3.3050148e-05
3.1466195e-05
2.8638063e-05
2.6110008e-05
2.7552148e-05
3.2421503e-05
3.5329635e-05
3.1481314e-05
1.6456902e-05
3.4493171e-05
3.4471301e-05
3.4414911e-05
3.4303789e-05
3.409601e-05
3.3702133e-05
3.2907027e-05
3.1248389e-05
2.8431492e-05
2.6411717e-05
2.8613483e-05
3.3670555e-05
3.6200409e-05
3.1831643e-05
1.6456669e-05
3.4413502e-05
3.4390234e-05
3.4330848e-05
3.4215429e-05
3.4001867e-05
3.3596524e-05
3.2766849e-05
3.1035014e-05
2.8276657e-05
2.6834392e-05
2.9746332e-05
3.4902298e-05
3.703343e-05
3.2159762e-05
1.6456572e-05
3.4335456e-05
3.4310905e-05
3.4248878e-05
3.4129939e-05
3.3911801e-05
3.3495676e-05
3.2629453e-05
3.0828885e-05
2.818473e-05
2.7377501e-05
3.093668e-05
3.6112069e-05
3.7830438e-05
3.2467823e-05
1.6456596e-05
3.4259011e-05
3.423333e-05
3.4169102e-05
3.4047543e-05
3.3826124e-05
3.3399718e-05
3.2494766e-05
3.0633923e-05
2.8166733e-05
2.8037693e-05
3.2171193e-05
3.7296637e-05
3.8593223e-05
3.2757763e-05
1.6456739e-05
3.4184168e-05
3.4157548e-05
3.409165e-05
3.3968498e-05
3.3745158e-05
3.3308744e-05
3.236288e-05
3.0455255e-05
2.8232927e-05
2.8809107e-05
3.3437649e-05
3.845388e-05
3.9323576e-05
3.3031311e-05
1.6457005e-05
3.4110952e-05
3.4083626e-05
3.4016682e-05
3.3893092e-05
3.3669236e-05
3.3222814e-05
3.2234152e-05
3.0299253e-05
2.8392247e-05
2.968379e-05
3.4725213e-05
3.9582514e-05
4.002327e-05
3.3290008e-05
1.6457402e-05
3.4039411e-05
3.4011658e-05
3.3944392e-05
3.3821645e-05
3.3598692e-05
3.3141955e-05
3.210932e-05
3.0173467e-05
2.8651822e-05
3.0652196e-05
3.6024572e-05
4.0681868e-05
4.0694026e-05
3.353522e-05
1.6457942e-05
3.3969616e-05
3.3941763e-05
3.3875008e-05
3.3754507e-05
3.3533859e-05
3.306618e-05
3.1989642e-05
3.0086447e-05
2.9016627e-05
3.170372e-05
3.7327935e-05
4.1751712e-05
4.1337508e-05
3.3768155e-05
1.6458635e-05
3.3901667e-05
3.3874095e-05
3.3808792e-05
3.369206e-05
3.3475059e-05
3.2995507e-05
3.187704e-05
3.0047455e-05
2.9489293e-05
3.282722e-05
3.8628938e-05
4.2792134e-05
4.1955299e-05
3.3989887e-05
1.6459492e-05
3.3835691e-05
3.3808835e-05
3.3746042e-05
3.3634709e-05
3.3422602e-05
3.2929991e-05
3.1774238e-05
3.0066081e-05
3.0070061e-05
3.4011505e-05
3.992249e-05
4.3803458e-05
4.2548902e-05
3.4201364e-05
1.6460521e-05
3.3771846e-05
3.3746203e-05
3.3687095e-05
3.358289e-05
3.3376777e-05
3.286978e-05
3.1684886e-05
3.0151793e-05
3.0756887e-05
3.5245744e-05
4.1204584e-05
4.4786179e-05
4.3119729e-05
3.4403428e-05
1.6461728e-05
3.3710322e-05
3.3686449e-05
3.3632325e-05
3.3537056e-05
3.3337852e-05
3.281518e-05
3.1613639e-05
3.0313469e-05
3.1545661e-05
3.651978e-05
4.2472113e-05
4.574092e-05
4.3669102e-05
3.4596827e-05
1.6463121e-05
3.3651343e-05
3.3629867e-05
3.3582146e-05
3.3497682e-05
3.3306071e-05
3.2766736e-05
3.1566176e-05
3.0558945e-05
3.243052e-05
3.7824351e-05
4.3722696e-05
4.6668398e-05
4.4198256e-05
3.4782226e-05
1.6464701e-05
3.359517e-05
3.3576787e-05
3.3537014e-05
3.3465257e-05
3.328166e-05
3.2725339e-05
3.1549147e-05
3.0894638e-05
3.3404216e-05
3.9151207e-05
4.495453e-05
4.7569395e-05
4.4708339e-05
3.4960217e-05
1.6466471e-05
3.3542106e-05
3.3527584e-05
3.3497423e-05
3.3440275e-05
3.3264838e-05
3.2692337e-05
3.1570023e-05
3.1325252e-05
3.4458517e-05
4.0493152e-05
4.6166275e-05
4.8444734e-05
4.520042e-05
3.5131333e-05
1.6468431e-05
3.3492497e-05
3.3482682e-05
3.346391e-05
3.3423238e-05
3.3255838e-05
3.2669661e-05
3.1636869e-05
3.1853602e-05
3.5584607e-05
4.1844009e-05
4.7356959e-05
4.9295262e-05
4.5675493e-05
3.5296047e-05
1.647058e-05
3.3446735e-05
3.3442548e-05
3.3437051e-05
3.3414644e-05
3.3254936e-05
3.2659938e-05
3.1758036e-05
3.2480556e-05
3.6773448e-05
4.3198546e-05
4.852591e-05
5.0121833e-05
4.613448e-05
3.5454787e-05
1.6472917e-05
3.3405264e-05
3.3407707e-05
3.3417461e-05
3.3414983e-05
3.32625e-05
3.2666592e-05
3.1941803e-05
3.3205088e-05
3.8016105e-05
4.4552376e-05
4.9672693e-05
5.0925298e-05
4.6578238e-05
3.5607939e-05
1.6475438e-05
3.3368581e-05
3.3378733e-05
3.3405791e-05
3.3424736e-05
3.3279045e-05
3.269391e-05
3.2195995e-05
3.4024422e-05
3.9303999e-05
4.5901846e-05
5.0797074e-05
5.1706493e-05
4.7007565e-05
3.575585e-05
1.6478139e-05
3.3337244e-05
3.3356261e-05
3.3402726e-05
3.3444374e-05
3.3305312e-05
3.2747054e-05
3.252762e-05
3.4934264e-05
4.06291e-05
4.7243932e-05
5.1898979e-05
5.2466235e-05
4.7423202e-05
3.5898837e-05
1.6481016e-05
3.3311875e-05
3.3340983e-05
3.3408981e-05
3.347436e-05
3.3342361e-05
3.2832014e-05
3.2942543e-05
3.5929072e-05
4.1984044e-05
4.8576139e-05
5.2978462e-05
5.3205317e-05
4.7825835e-05
3.6037187e-05
1.6484065e-05
3.3293163e-05
3.3333652e-05
3.3425294e-05
3.3515163e-05
3.3391668e-05
3.2955485e-05
3.3445235e-05
3.7002364e-05
4.3362193e-05
4.9896419e-05
5.4035684e-05
5.3924507e-05
4.8216108e-05
3.6171161e-05
1.6487281e-05
3.3281869e-05
3.3335085e-05
3.3452425e-05
3.3567272e-05
3.3455236e-05
3.3124674e-05
3.4038604e-05
3.8147029e-05
4.475765e-05
5.1203101e-05
5.5070885e-05
5.4624544e-05
4.8594615e-05
3.6301e-05
1.6490657e-05
3.3278836e-05
3.3346162e-05
3.3491148e-05
3.3631232e-05
3.3535695e-05
3.3347046e-05
3.4723924e-05
3.9355619e-05
4.6165229e-05
5.2494833e-05
5.6084371e-05
5.5306138e-05
4.8961914e-05
3.6426925e-05
1.6494188e-05
3.3284986e-05
3.3367825e-05
3.3542247e-05
3.3707682e-05
3.363639e-05
3.3630018e-05
3.5500853e-05
4.0620609e-05
4.7580408e-05
5.3770533e-05
5.7076493e-05
5.5969973e-05
4.9318529e-05
3.6549143e-05
1.649787e-05
3.3301328e-05
3.3401077e-05
3.3606513e-05
3.3797413e-05
3.376143e-05
3.3980642e-05
3.6367528e-05
4.193462e-05
4.8999268e-05
5.5029346e-05
5.8047636e-05
5.6616679e-05
4.966484e-05
3.6667084e-05
1.6501693e-05
3.3328964e-05
3.3446985e-05
3.3684745e-05
3.3901443e-05
3.39157e-05
3.4405292e-05
3.7320735e-05
4.3290581e-05
5.0418426e-05
5.6270611e-05
5.8998206e-05
5.7246852e-05
5.0001244e-05
3.6781085e-05
1.6505652e-05
3.3369088e-05
3.3506667e-05
3.3777753e-05
3.4021098e-05
3.4104809e-05
3.4909375e-05
3.8356117e-05
4.4681853e-05
5.1834971e-05
5.7493829e-05
5.9928618e-05
5.7861062e-05
5.0328147e-05
3.689145e-05
1.6509737e-05
3.3422991e-05
3.3581299e-05
3.3886372e-05
3.4158112e-05
3.4334985e-05
3.5497114e-05
3.9468419e-05
4.6102299e-05
5.3246403e-05
5.8698637e-05
6.0839303e-05
5.8459863e-05
5.064596e-05
3.6998448e-05
1.6513939e-05
3.3492061e-05
3.3672101e-05
3.4011478e-05
3.4314721e-05
3.4612895e-05
3.6171383e-05
4.0651732e-05
4.7546323e-05
5.4650584e-05
5.9884786e-05
6.173069e-05
5.9043733e-05
5.0954642e-05
3.7102365e-05
1.6518251e-05
3.3577784e-05
3.3780338e-05
3.4154026e-05
3.4493754e-05
3.4945418e-05
3.6933635e-05
4.1899744e-05
4.9008867e-05
5.604569e-05
6.1052123e-05
6.2603203e-05
5.9613115e-05
5.125441e-05
3.7203363e-05
1.6522664e-05
3.3681742e-05
3.3907315e-05
3.4315091e-05
3.4698708e-05
3.5339378e-05
3.7783896e-05
4.3205951e-05
5.0485402e-05
5.7430168e-05
6.2200568e-05
6.345726e-05
6.0168467e-05
5.1545764e-05
3.7301527e-05
1.6527174e-05
3.3805608e-05
3.4054378e-05
3.4495928e-05
3.4933788e-05
3.5801256e-05
3.8720836e-05
4.4563855e-05
5.1971888e-05
5.8802705e-05
6.333011e-05
6.4293281e-05
6.0710252e-05
5.1829143e-05
3.7396968e-05
1.6531776e-05
3.3951147e-05
3.422291e-05
3.4698048e-05
3.5203901e-05
3.6336912e-05
3.9741897e-05
4.5967112e-05
5.3464744e-05
6.0162192e-05
6.4440789e-05
6.5111673e-05
6.1238803e-05
5.2104952e-05
3.7489813e-05
1.6536466e-05
3.4120204e-05
3.4414351e-05
3.4923303e-05
3.5514599e-05
3.695133e-05
4.0843459e-05
4.7409646e-05
5.49608e-05
6.1507704e-05
6.5532686e-05
6.5912787e-05
6.1754105e-05
5.2373578e-05
3.7580207e-05
1.6541241e-05
3.4314704e-05
3.4630207e-05
3.5173978e-05
3.5871962e-05
3.7648415e-05
4.2021049e-05
4.8885732e-05
5.6457262e-05
6.2838466e-05
6.6605909e-05
6.6696984e-05
6.225673e-05
5.2635226e-05
3.7668256e-05
1.65461e-05
3.4536648e-05
3.4872084e-05
3.5452881e-05
3.6282423e-05
3.8430848e-05
4.326954e-05
5.039004e-05
5.7951668e-05
6.4153834e-05
6.7660593e-05
6.746465e-05
6.2747189e-05
5.2890119e-05
3.7754045e-05
1.6551039e-05
3.4788108e-05
3.514173e-05
3.5763425e-05
3.6752545e-05
3.9300015e-05
4.4583367e-05
5.1917656e-05
5.9441854e-05
6.5453277e-05
6.8696905e-05
6.8216184e-05
6.3225943e-05
5.3138485e-05
3.7837654e-05
1.6556054e-05
3.5071239e-05
3.5441095e-05
3.6109681e-05
3.7288766e-05
4.0255995e-05
4.5956714e-05
5.3464086e-05
6.0925923e-05
6.673637e-05
6.9714988e-05
6.8951483e-05
6.3693455e-05
5.3380575e-05
3.7919178e-05
1.6561141e-05
3.5388288e-05
3.5772399e-05
3.649639e-05
3.7897126e-05
4.1297623e-05
4.7383683e-05
5.5025242e-05
6.2402214e-05
6.8002755e-05
7.0714995e-05
6.9671026e-05
6.4150035e-05
5.3616597e-05
3.7998704e-05
1.6566298e-05
3.5741621e-05
3.6138224e-05
3.6928935e-05
3.8583012e-05
4.2422594e-05
4.8858432e-05
5.6597424e-05
6.386927e-05
6.9252142e-05
7.1697116e-05
7.0375288e-05
6.4595981e-05
5.3846738e-05
3.8076308e-05
1.6571522e-05
3.6133763e-05
3.6541596e-05
3.7413247e-05
3.935093e-05
4.3627618e-05
5.0375285e-05
5.8177289e-05
6.5325811e-05
7.0484305e-05
7.2661576e-05
7.1064703e-05
6.5031591e-05
5.4071178e-05
3.8152053e-05
1.6576808e-05
3.656745e-05
3.6986079e-05
3.7955658e-05
4.0204317e-05
4.4908591e-05
5.192881e-05
5.976183e-05
6.6770734e-05
7.1699057e-05
7.3608222e-05
7.1739654e-05
6.5457163e-05
5.4290105e-05
3.8226003e-05
1.6582153e-05
3.7045705e-05
3.747584e-05
3.8562697e-05
4.1145423e-05
4.6260783e-05
5.3513869e-05
6.1348344e-05
6.8203058e-05
7.2896227e-05
7.4537355e-05
7.2400491e-05
6.587296e-05
5.4503696e-05
3.8298217e-05
1.6587554e-05
3.7571914e-05
3.8015696e-05
3.9240849e-05
4.2175253e-05
4.7679019e-05
5.5125653e-05
6.2934398e-05
6.9621915e-05
7.4075701e-05
7.5449301e-05
7.3047532e-05
6.627923e-05
5.4712112e-05
3.8368751e-05
1.6593007e-05
3.8149909e-05
3.8611106e-05
3.9996291e-05
4.3293572e-05
4.9157848e-05
5.6759686e-05
6.451781e-05
7.102655e-05
7.5237337e-05
7.6344343e-05
7.3681074e-05
6.6676216e-05
5.4915499e-05
3.8437654e-05
1.659851e-05
3.8784045e-05
3.926811e-05
4.0834624e-05
4.4498968e-05
5.0691701e-05
5.8411835e-05
6.6096629e-05
7.2416294e-05
7.6380924e-05
7.7222726e-05
7.4301395e-05
6.706416e-05
5.5113998e-05
3.8504971e-05
1.6604058e-05
3.9479252e-05
3.9993211e-05
4.1760634e-05
4.5788966e-05
5.2275007e-05
6.0078291e-05
6.7669082e-05
7.3790524e-05
7.7506486e-05
7.8084757e-05
7.4908757e-05
6.7443285e-05
5.5307742e-05
3.8570745e-05
1.6609648e-05
4.0241032e-05
4.0793179e-05
4.2778085e-05
4.7160166e-05
5.3902298e-05
6.1755549e-05
6.9233568e-05
7.5148708e-05
7.861411e-05
7.893069e-05
7.5503413e-05
6.7813799e-05
5.5496856e-05
3.8635015e-05
1.6615277e-05
4.1075417e-05
4.1674808e-05
4.3889572e-05
4.8608415e-05
5.5568283e-05
6.3440418e-05
7.078868e-05
7.6490243e-05
7.9703727e-05
7.9760731e-05
7.6085615e-05
6.8175899e-05
5.5681454e-05
3.8697816e-05
1.6620943e-05
4.1988835e-05
4.2644634e-05
4.5096432e-05
5.0128977e-05
5.72679e-05
6.5129953e-05
7.2333072e-05
7.7814665e-05
8.0775527e-05
8.0575081e-05
7.6655599e-05
6.8529771e-05
5.5861644e-05
3.875918e-05
1.662664e-05
4.2987909e-05
4.3708623e-05
4.6398725e-05
5.1716694e-05
5.8996337e-05
6.6821442e-05
7.3865524e-05
7.9121662e-05
8.1829645e-05
8.1373943e-05
7.7213582e-05
6.8875589e-05
5.6037526e-05
3.8819138e-05
1.6632367e-05
4.4079177e-05
4.4871874e-05
4.7795266e-05
5.3366148e-05
6.0749076e-05
6.8512447e-05
7.5384894e-05
8.0410763e-05
8.286613e-05
8.2157513e-05
7.7759771e-05
6.9213516e-05
5.620919e-05
3.8877714e-05
1.663812e-05
4.5268756e-05
4.6138343e-05
4.9283716e-05
5.5071786e-05
6.2521861e-05
7.0200647e-05
7.6890082e-05
8.1681872e-05
8.3885041e-05
8.2925975e-05
7.8294359e-05
6.9543701e-05
5.6376724e-05
3.8934934e-05
1.6643896e-05
4.6561974e-05
4.7510623e-05
5.0860696e-05
5.6828026e-05
6.4310696e-05
7.1883893e-05
7.8380145e-05
8.2934863e-05
8.4886447e-05
8.3679495e-05
7.8817526e-05
6.9866285e-05
5.6540204e-05
3.8990818e-05
1.6649692e-05
4.7962996e-05
4.898978e-05
5.2521942e-05
5.8629364e-05
6.6111892e-05
7.3560213e-05
7.9854058e-05
8.4169514e-05
8.5870411e-05
8.441823e-05
7.9329437e-05
7.0181395e-05
5.6699701e-05
3.9045385e-05
1.6655505e-05
4.9474489e-05
5.0575266e-05
5.4262446e-05
6.0470391e-05
6.7921897e-05
7.5227647e-05
8.1311335e-05
8.5385641e-05
8.6836984e-05
8.514232e-05
7.9830243e-05
7.0489148e-05
5.6855279e-05
3.9098652e-05
1.6661331e-05
5.1097352e-05
5.2264907e-05
5.6076623e-05
6.2345898e-05
6.9737446e-05
7.688424e-05
8.2751349e-05
8.6583069e-05
8.7786206e-05
8.5851893e-05
8.0320081e-05
7.0789651e-05
5.7006997e-05
3.9150633e-05
1.6667168e-05
5.2830537e-05
5.4054946e-05
5.7958422e-05
6.4250782e-05
7.1555308e-05
7.85286e-05
8.4173491e-05
8.7761624e-05
8.8718105e-05
8.6547056e-05
8.0799073e-05
7.1082999e-05
5.7154905e-05
3.9201339e-05
1.6673012e-05
5.4670984e-05
5.5940173e-05
5.9901486e-05
6.6180153e-05
7.3372248e-05
8.015943e-05
8.5577184e-05
8.8921123e-05
8.9632693e-05
8.7227904e-05
8.1267326e-05
7.1369275e-05
5.7299048e-05
3.9250779e-05
1.6678861e-05
5.6613665e-05
5.7914049e-05
6.189915e-05
6.8129082e-05
7.5185691e-05
8.1775471e-05
8.6961869e-05
9.0061378e-05
9.0529967e-05
8.7894511e-05
8.1724933e-05
7.1648553e-05
5.7439464e-05
3.9298961e-05
1.6684711e-05
5.8651735e-05
5.9968908e-05
6.3944535e-05
7.0092768e-05
7.699326e-05
8.3375523e-05
8.8327e-05
9.1182191e-05
9.1409904e-05
8.8546935e-05
8.217197e-05
7.1920894e-05
5.7576186e-05
3.9345889e-05
1.669056e-05
6.0776714e-05
6.2096022e-05
6.6030488e-05
7.2067042e-05
7.8792698e-05
8.4958436e-05
8.9672037e-05
9.2283348e-05
9.2272462e-05
8.9185211e-05
8.2608498e-05
7.2186349e-05
5.7709238e-05
3.9391565e-05
1.6696403e-05
6.2978696e-05
6.4285979e-05
6.8150168e-05
7.4047887e-05
8.0581852e-05
8.6523102e-05
9.0996442e-05
9.3364622e-05
9.3117579e-05
8.9809358e-05
8.3034561e-05
7.2444958e-05
5.7838641e-05
3.9435989e-05
1.6702239e-05
6.5246807e-05
6.6528969e-05
7.0296781e-05
7.6031429e-05
8.2358659e-05
8.8068448e-05
9.2299673e-05
9.4425765e-05
9.394517e-05
9.0419374e-05
8.3450188e-05
7.269675e-05
5.7964407e-05
3.9479159e-05
1.6708063e-05
6.7569591e-05
6.8814966e-05
7.2463622e-05
7.8013917e-05
8.4121134e-05
8.9593426e-05
9.3581187e-05
9.5466515e-05
9.4755128e-05
9.1015234e-05
8.3855391e-05
7.2941739e-05
5.8086542e-05
3.9521069e-05
1.6713873e-05
6.9935366e-05
7.1133931e-05
7.4644107e-05
7.9991721e-05
8.586736e-05
9.1097012e-05
9.4840435e-05
9.6486588e-05
9.5547325e-05
9.1596895e-05
8.4250164e-05
7.3179933e-05
5.8205046e-05
3.9561714e-05
1.6719665e-05
7.2332532e-05
7.3475991e-05
7.6831817e-05
8.1961316e-05
8.7595478e-05
9.2578201e-05
9.6076859e-05
9.7485682e-05
9.6321608e-05
9.2164291e-05
8.4634486e-05
7.3411323e-05
5.8319913e-05
3.9601083e-05
1.6725435e-05
7.4749838e-05
7.5831595e-05
7.9020529e-05
8.3919285e-05
8.9303682e-05
9.4036005e-05
9.7289899e-05
9.8463478e-05
9.7077804e-05
9.2717336e-05
8.5008319e-05
7.3635892e-05
5.8431128e-05
3.9639163e-05
1.6731181e-05
7.7176583e-05
7.8191646e-05
8.120426e-05
8.5862318e-05
9.0990216e-05
9.5469452e-05
9.8478988e-05
9.9419638e-05
9.781572e-05
9.3255926e-05
8.5371609e-05
7.3853611e-05
5.8538672e-05
3.9675941e-05
1.6736897e-05
7.9602775e-05
8.0547598e-05
8.3377301e-05
8.7787213e-05
9.2653369e-05
9.6877589e-05
9.9643559e-05
0.00010035382
9.8535143e-05
9.3779937e-05
8.5724285e-05
7.4064438e-05
5.8642519e-05
3.9711399e-05
1.6742581e-05
8.2019226e-05
8.289153e-05
8.5534252e-05
8.9690891e-05
9.429148e-05
9.825948e-05
0.00010078304
0.00010126565
9.9235847e-05
9.4289228e-05
8.6066264e-05
7.4268323e-05
5.8742636e-05
3.9745519e-05
1.6748228e-05
8.4417608e-05
8.5216193e-05
8.7670055e-05
9.1570404e-05
9.5902942e-05
9.9614213e-05
0.00010189688
0.00010215478
9.9917589e-05
9.4783643e-05
8.6397448e-05
7.4465205e-05
5.8838985e-05
3.9778277e-05
1.6753834e-05
8.6790478e-05
8.7515033e-05
8.9780011e-05
9.3422945e-05
9.7486203e-05
0.0001009409
0.00010298452
0.00010302083
0.00010058012
9.5263015e-05
8.6717726e-05
7.4655013e-05
5.8931522e-05
3.9809651e-05
1.6759394e-05
8.913126e-05
8.9782194e-05
9.1859806e-05
9.5245868e-05
9.9039778e-05
0.0001022387
0.00010404543
0.00010386344
0.00010122318
9.5727166e-05
8.7026979e-05
7.4837669e-05
5.9020198e-05
3.9839615e-05
1.6764905e-05
9.1434222e-05
9.2012507e-05
9.3905518e-05
9.7036695e-05
0.00010056225
0.00010350677
0.00010507908
0.00010468225
0.00010184652
9.6175913e-05
8.732508e-05
7.5013087e-05
5.9104961e-05
3.9868141e-05
1.6770361e-05
9.3694423e-05
9.4201462e-05
9.591362e-05
9.8793129e-05
0.00010205229
0.00010474436
0.00010608499
0.00010547691
0.00010244988
9.6609069e-05
8.7611895e-05
7.5181177e-05
5.9185752e-05
3.9895201e-05
1.6775757e-05
9.5907664e-05
9.6345178e-05
9.7880982e-05
0.00010051307
0.00010350865
0.00010595073
0.0001070627
0.00010624711
0.00010303302
9.7026447e-05
8.7887288e-05
7.5341844e-05
5.9262513e-05
3.9920764e-05
1.6781088e-05
9.8070422e-05
9.8440359e-05
9.9804859e-05
0.0001021946
0.00010493018
0.00010712522
0.00010801178
0.00010699254
0.00010359569
9.7427868e-05
8.8151122e-05
7.5494992e-05
5.9335182e-05
3.99448e-05
1.6786349e-05
0.00010017979
0.00010048425
0.00010168288
0.00010383602
0.00010631583
0.00010826721
0.00010893185
0.00010771292
0.0001041377
9.7813159e-05
8.8403266e-05
7.5640526e-05
5.9403698e-05
3.9967278e-05
1.6791535e-05
0.00010223343
0.00010247459
0.00010351303
0.00010543584
0.00010766467
0.00010937615
0.00010982257
0.00010840801
0.00010465884
9.8182161e-05
8.8643593e-05
7.5778351e-05
5.9468e-05
3.9988169e-05
1.6796639e-05
0.00010422948
0.00010440958
0.00010529364
0.00010699274
0.00010897585
0.00011045156
0.00011068365
0.00010907761
0.00010515896
9.8534732e-05
8.8871984e-05
7.5908378e-05
5.9528029e-05
4.0007441e-05
1.6801657e-05
0.00010616653
0.0001062878
0.00010702335
0.00010850565
0.00011024868
0.00011149304
0.00011151485
0.00010972156
0.0001056379
9.887075e-05
8.9088336e-05
7.6030525e-05
5.9583729e-05
4.0025069e-05
1.6806582e-05
0.00010804356
0.00010810824
0.00010870109
0.00010997365
0.00011148255
0.00011250025
0.00011231599
0.00011033973
0.00010609557
9.9190117e-05
8.9292559e-05
7.614472e-05
5.9635051e-05
4.0041026e-05
1.6811408e-05
0.0001098599
0.00010987016
0.00011032606
0.00011139603
0.00011267697
0.00011347293
0.00011308695
0.00011093204
0.0001065319
9.9492761e-05
8.948458e-05
7.6250899e-05
5.9681949e-05
4.0055289e-05
1.6816131e-05
0.00011161516
0.00011157315
0.00011189772
0.00011277226
0.00011383159
0.00011441091
0.00011382765
0.00011149848
0.00010694687
9.977864e-05
8.966435e-05
7.6349014e-05
5.9724387e-05
4.0067839e-05
1.6820744e-05
0.00011330924
0.00011321703
0.00011341573
0.00011410195
0.00011494614
0.00011531407
0.0001145381
0.00011203906
0.00010734048
0.00010004774
8.983184e-05
7.643903e-05
5.9762337e-05
4.007866e-05
1.6825242e-05
0.00011494225
0.00011480184
0.00011487999
0.0001153849
0.00011602048
0.00011618238
0.00011521832
0.00011255386
0.00010771278
0.00010030009
8.9987046e-05
7.6520932e-05
5.979578e-05
4.0087741e-05
1.6829619e-05
0.00011651449
0.00011632784
0.00011629055
0.00011662105
0.00011705456
0.0001170159
0.00011586845
0.00011304298
0.00010806388
0.00010053575
9.0129992e-05
7.6594719e-05
5.982471e-05
4.0095076e-05
1.6833871e-05
0.00011802647
0.00011779544
0.00011764763
0.00011781047
0.00011804845
0.00011781474
0.00011648863
0.0001135066
0.0001083939
0.00010075479
9.0260726e-05
7.6660411e-05
5.984913e-05
4.0100665e-05
1.6837992e-05
0.0001194788
0.00011920519
0.0001189516
0.00011895335
0.0001190023
0.00011857907
0.00011707908
0.00011394493
0.00010870302
0.00010095736
9.0379325e-05
7.6718049e-05
5.9869058e-05
4.0104513e-05
1.6841978e-05
0.00012087226
0.0001205578
0.00012020295
0.00012005001
0.00011991635
0.00011930917
0.00011764008
0.00011435824
0.00010899147
0.00010114361
9.0485897e-05
7.6767692e-05
5.9884523e-05
4.010663e-05
1.6845825e-05
0.00012220769
0.00012185404
0.0001214023
0.00012110086
0.00012079092
0.00012000533
0.00011817194
0.00011474682
0.0001092595
0.00010131374
9.0580573e-05
7.6809424e-05
5.989557e-05
4.0107034e-05
1.6849529e-05
0.00012348607
0.00012309482
0.00012255036
0.0001221064
0.00012162641
0.00012066794
0.00011867504
0.00011511101
0.0001095074
0.00010146798
9.0663517e-05
7.6843345e-05
5.9902254e-05
4.0105748e-05
1.6853086e-05
0.00012470843
0.00012428112
0.00012364791
0.00012306724
0.00012242329
0.00012129743
0.0001191498
0.00011545122
0.00010973551
0.00010160659
9.0734917e-05
7.686958e-05
5.9904646e-05
4.0102801e-05
1.6856493e-05
0.00012587587
0.00012541396
0.00012469582
0.00012398403
0.00012318211
0.00012189427
0.00011959666
0.00011576785
0.00010994419
0.00010172986
9.0794986e-05
7.688827e-05
5.9902828e-05
4.009823e-05
1.6859748e-05
0.00012698955
0.00012649446
0.00012569504
0.0001248575
0.00012390344
0.000122459
0.00012001612
0.00011606136
0.00011013384
0.00010183811
9.0843966e-05
7.689958e-05
5.9896898e-05
4.0092075e-05
1.686285e-05
0.00012805068
0.00012752375
0.00012664654
0.00012568846
0.00012458795
0.00012299219
0.00012040871
0.00011633224
0.00011030488
0.00010193169
9.0882119e-05
7.690369e-05
5.9886963e-05
4.0084384e-05
1.6865796e-05
0.00012906048
0.00012850302
0.00012755136
0.00012647774
0.00012523632
0.00012349445
0.000120775
0.000116581
0.00011045776
0.00010201097
9.0909729e-05
7.6900798e-05
5.9873142e-05
4.0075209e-05
1.6868586e-05
0.00013002024
0.00012943348
0.00012841057
0.00012722622
0.00012584929
0.00012396643
0.00012111558
0.00011680818
0.00011059297
0.00010207634
9.0927102e-05
7.689112e-05
5.9855567e-05
4.0064606e-05
1.6871219e-05
0.00013093123
0.00013031639
0.00012922528
0.00012793484
0.00012642762
0.00012440879
0.00012143106
0.00011701436
0.00011071098
0.00010212823
9.093456e-05
7.6874884e-05
5.9834377e-05
4.0052638e-05
1.6873695e-05
0.00013179476
0.00013115299
0.00012999661
0.00012860453
0.00012697213
0.00012482226
0.00012172209
0.0001172001
0.00011081233
0.00010216706
9.0932442e-05
7.6852332e-05
5.9809721e-05
4.003937e-05
1.6876015e-05
0.00013261216
0.00013194456
0.00013072573
0.00012923628
0.00012748364
0.00012520754
0.00012198932
0.00011736601
0.00011089754
0.00010219329