/*--------------------------------*- C++ -*----------------------------------*\
| =========                 |                                                 |
| \\      /  F ield         | OpenFOAM: The Open Source CFD Toolbox           |
|  \\    /   O peration     | Version:  2506                                  |
|   \\  /    A nd           | Website:  www.openfoam.com                      |
|    \\/     M anipulation  |                                                 |
\*---------------------------------------------------------------------------*/
FoamFile
{
    version     2.0;
    format      ascii;
    arch        "LSB;label=32;scalar=64";
    class       volScalarField;
    location    "9000/water";
    object      T;
}
// * * * * * * * * * * * * * * * * * * * * * * * * * * * * * * * * * * * * * //

dimensions      [0 0 0 1 0 0 0];

internalField   nonuniform List<scalar> 
6000
(
333.15
333.15
333.15
333.15
333.15
333.15
333.15
333.15
333.15
333.15
333.15
333.14998
333.14989
333.14924
333.14255
333.15
333.15
333.15
333.15
333.15
333.15
333.15
333.15
333.15
333.15
333.14999
333.14994
333.14968
333.14816
333.13665
333.15
333.15
333.15
333.15
333.15
333.15
333.15
333.15
333.15
333.14999
333.14997
333.14987
333.14939
333.14688
333.13169
333.15
333.15
333.15
333.15
333.15
333.15
333.15
333.15
333.15
333.14999
333.14994
333.14976
333.14902
333.14546
333.12735
333.15
333.15
333.15
333.15
333.15
333.15
333.15
333.15
333.14999
333.14997
333.1499
333.14963
333.1486
333.14394
333.12346
333.15
333.15
333.15
333.15
333.15
333.15
333.15
333.15
333.14999
333.14996
333.14985
333.14947
333.14812
333.14235
333.11991
333.15
333.15
333.15
333.15
333.15
333.15
333.15
333.14999
333.14998
333.14994
333.14978
333.14929
333.1476
333.14071
333.11665
333.15
333.15
333.15
333.15
333.15
333.15
333.15
333.14999
333.14997
333.14991
333.1497
333.14908
333.14703
333.13903
333.11362
333.15
333.15
333.15
333.15
333.15
333.15
333.15
333.14999
333.14996
333.14987
333.14961
333.14886
333.14642
333.13733
333.1108
333.15
333.15
333.15
333.15
333.15
333.15
333.14999
333.14998
333.14994
333.14983
333.14951
333.14862
333.14577
333.13562
333.10816
333.15
333.15
333.15
333.15
333.15
333.15
333.14999
333.14998
333.14993
333.14978
333.1494
333.14835
333.14508
333.13391
333.10569
333.15
333.15
333.15
333.15
333.15
333.15
333.14999
333.14997
333.1499
333.14973
333.14928
333.14807
333.14436
333.13221
333.10338
333.15
333.15
333.15
333.15
333.15
333.14999
333.14998
333.14996
333.14988
333.14967
333.14915
333.14776
333.14359
333.13052
333.10122
333.15
333.15
333.15
333.15
333.15
333.14999
333.14998
333.14994
333.14985
333.14961
333.14901
333.14744
333.14278
333.12886
333.0992
333.15
333.15
333.15
333.15
333.15
333.14999
333.14997
333.14993
333.14982
333.14954
333.14886
333.14709
333.14193
333.12722
333.09733
333.15
333.15
333.15
333.15
333.15
333.14999
333.14997
333.14991
333.14978
333.14946
333.14869
333.14672
333.14103
333.12561
333.09558
333.15
333.15
333.15
333.15
333.14999
333.14998
333.14996
333.1499
333.14974
333.14938
333.14852
333.14632
333.14009
333.12405
333.09398
333.15
333.15
333.15
333.15
333.14999
333.14998
333.14995
333.14988
333.1497
333.14929
333.14833
333.1459
333.13911
333.12253
333.0925
333.15
333.15
333.15
333.15
333.14999
333.14998
333.14994
333.14985
333.14965
333.14919
333.14813
333.14544
333.13809
333.12106
333.09114
333.15
333.15
333.15
333.14999
333.14999
333.14997
333.14993
333.14983
333.1496
333.14909
333.14792
333.14495
333.13704
333.11965
333.0899
333.15
333.15
333.15
333.14999
333.14999
333.14997
333.14992
333.1498
333.14955
333.14898
333.14769
333.14442
333.13595
333.1183
333.08877
333.15
333.15
333.15
333.14999
333.14998
333.14996
333.1499
333.14977
333.14949
333.14887
333.14744
333.14386
333.13484
333.11701
333.08775
333.15
333.15
333.15
333.14999
333.14998
333.14995
333.14989
333.14974
333.14943
333.14874
333.14717
333.14325
333.13371
333.11578
333.08683
333.15
333.15
333.14999
333.14999
333.14998
333.14994
333.14987
333.14971
333.14936
333.14861
333.14689
333.1426
333.13257
333.11461
333.08599
333.15
333.15
333.14999
333.14999
333.14997
333.14993
333.14985
333.14967
333.14929
333.14846
333.14657
333.14191
333.13144
333.11351
333.08523
333.15
333.15
333.14999
333.14998
333.14997
333.14992
333.14983
333.14963
333.14921
333.14831
333.14623
333.14118
333.13031
333.11247
333.08455
333.15
333.15
333.14999
333.14998
333.14996
333.14991
333.14981
333.14959
333.14913
333.14814
333.14587
333.14042
333.1292
333.11149
333.08392
333.15
333.14999
333.14999
333.14998
333.14995
333.1499
333.14978
333.14954
333.14904
333.14796
333.14547
333.13962
333.12812
333.11057
333.08336
333.15
333.14999
333.14999
333.14998
333.14995
333.14989
333.14976
333.14949
333.14894
333.14776
333.14504
333.13879
333.12706
333.1097
333.08285
333.14999
333.14999
333.14999
333.14997
333.14994
333.14987
333.14973
333.14944
333.14884
333.14755
333.14458
333.13794
333.12603
333.10888
333.08238
333.14999
333.14999
333.14998
333.14997
333.14993
333.14986
333.1497
333.14938
333.14873
333.14732
333.14408
333.13708
333.12505
333.1081
333.08195
333.14999
333.14999
333.14998
333.14996
333.14992
333.14984
333.14967
333.14932
333.14861
333.14707
333.14356
333.1362
333.12409
333.10737
333.08155
333.14999
333.14999
333.14998
333.14996
333.14991
333.14982
333.14964
333.14926
333.14848
333.1468
333.14299
333.13532
333.12318
333.10668
333.08119
333.14999
333.14999
333.14998
333.14995
333.1499
333.1498
333.1496
333.14919
333.14834
333.1465
333.1424
333.13445
333.12231
333.10603
333.08085
333.14999
333.14998
333.14997
333.14995
333.14989
333.14978
333.14956
333.14911
333.14819
333.14618
333.14178
333.13358
333.12147
333.10541
333.08054
333.14999
333.14998
333.14997
333.14994
333.14988
333.14976
333.14952
333.14903
333.14802
333.14584
333.14114
333.13272
333.12067
333.10482
333.08025
333.14999
333.14998
333.14997
333.14993
333.14987
333.14973
333.14947
333.14894
333.14785
333.14546
333.14048
333.13188
333.1199
333.10426
333.07998
333.14998
333.14998
333.14996
333.14993
333.14985
333.14971
333.14942
333.14885
333.14765
333.14506
333.13979
333.13106
333.11917
333.10373
333.07973
333.14998
333.14998
333.14996
333.14992
333.14984
333.14968
333.14937
333.14874
333.14744
333.14464
333.1391
333.13026
333.11846
333.10322
333.07949
333.14998
333.14997
333.14995
333.14991
333.14982
333.14965
333.14931
333.14863
333.14721
333.14419
333.1384
333.12948
333.11779
333.10274
333.07927
333.14998
333.14997
333.14995
333.1499
333.1498
333.14962
333.14925
333.14851
333.14696
333.14371
333.13769
333.12872
333.11714
333.10228
333.07905
333.14997
333.14996
333.14994
333.14989
333.14978
333.14958
333.14918
333.14838
333.1467
333.14321
333.13699
333.12799
333.11652
333.10184
333.07886
333.14997
333.14996
333.14993
333.14988
333.14976
333.14954
333.14911
333.14823
333.14641
333.14269
333.13629
333.12728
333.11593
333.10142
333.07867
333.14997
333.14996
333.14993
333.14986
333.14974
333.1495
333.14903
333.14808
333.1461
333.14216
333.13559
333.12659
333.11536
333.10102
333.07849
333.14996
333.14995
333.14992
333.14985
333.14972
333.14946
333.14894
333.14791
333.14576
333.1416
333.1349
333.12592
333.11481
333.10064
333.07832
333.14996
333.14995
333.14991
333.14984
333.14969
333.14941
333.14885
333.14773
333.14541
333.14104
333.13422
333.12527
333.11428
333.10027
333.07816
333.14995
333.14994
333.1499
333.14982
333.14966
333.14936
333.14875
333.14753
333.14504
333.14046
333.13355
333.12465
333.11377
333.09991
333.07801
333.14995
333.14993
333.14989
333.1498
333.14963
333.1493
333.14864
333.14731
333.14464
333.13988
333.1329
333.12404
333.11328
333.09957
333.07787
333.14994
333.14993
333.14988
333.14978
333.1496
333.14924
333.14853
333.14708
333.14422
333.13929
333.13226
333.12345
333.1128
333.09924
333.07773
333.14994
333.14992
333.14987
333.14977
333.14956
333.14917
333.1484
333.14683
333.14379
333.1387
333.13163
333.12288
333.11235
333.09893
333.0776
333.14993
333.14991
333.14986
333.14974
333.14953
333.1491
333.14826
333.14657
333.14334
333.13811
333.13101
333.12233
333.11191
333.09862
333.07747
333.14993
333.1499
333.14984
333.14972
333.14948
333.14902
333.14811
333.14628
333.14288
333.13752
333.13041
333.1218
333.11148
333.09833
333.07735
333.14992
333.14989
333.14983
333.1497
333.14944
333.14894
333.14795
333.14598
333.1424
333.13694
333.12983
333.12128
333.11107
333.09804
333.07724
333.14991
333.14988
333.14981
333.14967
333.14939
333.14885
333.14777
333.14566
333.14191
333.13636
333.12925
333.12077
333.11067
333.09777
333.07713
333.1499
333.14987
333.14979
333.14964
333.14934
333.14875
333.14758
333.14532
333.14142
333.13579
333.12869
333.12029
333.11028
333.0975
333.07703
333.14989
333.14986
333.14978
333.14961
333.14928
333.14864
333.14738
333.14496
333.14092
333.13522
333.12815
333.11981
333.10991
333.09724
333.07693
333.14988
333.14985
333.14976
333.14957
333.14922
333.14852
333.14716
333.14459
333.14041
333.13466
333.12761
333.11935
333.10954
333.09699
333.07683
333.14987
333.14983
333.14973
333.14954
333.14915
333.1484
333.14692
333.14421
333.1399
333.13411
333.1271
333.1189
333.10919
333.09675
333.07674
333.14986
333.14982
333.14971
333.1495
333.14908
333.14826
333.14667
333.14381
333.13939
333.13357
333.12659
333.11847
333.10885
333.09652
333.07665
333.14984
333.1498
333.14969
333.14945
333.149
333.14811
333.1464
333.14339
333.13888
333.13304
333.12609
333.11805
333.10851
333.09629
333.07657
333.14983
333.14978
333.14966
333.1494
333.14891
333.14795
333.14612
333.14297
333.13837
333.13251
333.12561
333.11763
333.10819
333.09607
333.07649
333.14982
333.14976
333.14963
333.14935
333.14882
333.14778
333.14582
333.14254
333.13786
333.132
333.12514
333.11723
333.10787
333.09586
333.07641
333.1498
333.14974
333.1496
333.1493
333.14871
333.14759
333.14551
333.1421
333.13736
333.1315
333.12468
333.11684
333.10757
333.09565
333.07633
333.14978
333.14972
333.14956
333.14924
333.1486
333.14739
333.14518
333.14165
333.13685
333.131
333.12423
333.11646
333.10727
333.09544
333.07626
333.14976
333.1497
333.14952
333.14917
333.14848
333.14717
333.14484
333.1412
333.13636
333.13051
333.12379
333.11609
333.10698
333.09525
333.07619
333.14974
333.14967
333.14948
333.1491
333.14835
333.14695
333.14448
333.14075
333.13587
333.13004
333.12336
333.11572
333.10669
333.09505
333.07612
333.14972
333.14964
333.14943
333.14902
333.14821
333.1467
333.14412
333.14029
333.13538
333.12957
333.12294
333.11537
333.10642
333.09486
333.07606
333.14969
333.14961
333.14938
333.14893
333.14806
333.14645
333.14374
333.13984
333.1349
333.12911
333.12253
333.11502
333.10615
333.09468
333.07599
333.14967
333.14957
333.14933
333.14884
333.1479
333.14617
333.14335
333.13938
333.13442
333.12866
333.12212
333.11468
333.10588
333.0945
333.07593
333.14964
333.14953
333.14927
333.14874
333.14772
333.14589
333.14296
333.13892
333.13395
333.12821
333.12173
333.11435
333.10562
333.09433
333.07587
333.1496
333.14949
333.14921
333.14863
333.14753
333.14559
333.14256
333.13846
333.13349
333.12778
333.12134
333.11403
333.10537
333.09416
333.07581
333.14957
333.14945
333.14914
333.14851
333.14733
333.14528
333.14215
333.13801
333.13303
333.12735
333.12097
333.11371
333.10512
333.09399
333.07575
333.14953
333.1494
333.14906
333.14838
333.14711
333.14495
333.14174
333.13756
333.13258
333.12693
333.1206
333.1134
333.10488
333.09383
333.0757
333.14949
333.14934
333.14898
333.14824
333.14689
333.14462
333.14132
333.13711
333.13214
333.12652
333.12024
333.1131
333.10464
333.09367
333.07564
333.14944
333.14929
333.14889
333.14809
333.14664
333.14427
333.1409
333.13666
333.1317
333.12612
333.11988
333.1128
333.10441
333.09351
333.07559
333.14939
333.14922
333.14879
333.14793
333.14639
333.14392
333.14048
333.13622
333.13127
333.12572
333.11953
333.11251
333.10419
333.09336
333.07554
333.14933
333.14915
333.14868
333.14776
333.14612
333.14355
333.14006
333.13578
333.13085
333.12533
333.11919
333.11223
333.10396
333.0932
333.07548
333.14927
333.14907
333.14856
333.14757
333.14583
333.14318
333.13963
333.13534
333.13043
333.12495
333.11886
333.11195
333.10375
333.09306
333.07543
333.14921
333.14899
333.14844
333.14737
333.14554
333.1428
333.13921
333.13491
333.13001
333.12457
333.11853
333.11167
333.10353
333.09291
333.07538
333.14913
333.1489
333.1483
333.14715
333.14523
333.14242
333.13879
333.13448
333.12961
333.1242
333.1182
333.1114
333.10332
333.09277
333.07533
333.14905
333.1488
333.14815
333.14693
333.14491
333.14203
333.13836
333.13406
333.12921
333.12384
333.11789
333.11114
333.10311
333.09263
333.07528
333.14896
333.14869
333.14799
333.14669
333.14459
333.14164
333.13794
333.13364
333.12881
333.12348
333.11757
333.11088
333.10291
333.09249
333.07523
333.14887
333.14857
333.14781
333.14643
333.14425
333.14124
333.13752
333.13322
333.12842
333.12313
333.11727
333.11062
333.10271
333.09235
333.07519
333.14876
333.14844
333.14763
333.14616
333.1439
333.14084
333.13711
333.13281
333.12804
333.12278
333.11697
333.11037
333.10251
333.09222
333.07514
333.14864
333.14829
333.14743
333.14588
333.14355
333.14044
333.13669
333.13241
333.12766
333.12244
333.11667
333.11012
333.10232
333.09209
333.07509
333.14851
333.14814
333.14721
333.14559
333.14318
333.14004
333.13628
333.13201
333.12729
333.12211
333.11638
333.10988
333.10213
333.09196
333.07504
333.14837
333.14797
333.14698
333.14529
333.14281
333.13963
333.13586
333.13161
333.12692
333.12178
333.11609
333.10964
333.10194
333.09183
333.07499
333.14822
333.14778
333.14674
333.14497
333.14244
333.13923
333.13546
333.13122
333.12656
333.12145
333.11581
333.10941
333.10176
333.0917
333.07495
333.14805
333.14759
333.14648
333.14464
333.14206
333.13882
333.13505
333.13083
333.1262
333.12113
333.11553
333.10917
333.10158
333.09157
333.0749
333.14787
333.14737
333.14621
333.1443
333.14167
333.13842
333.13465
333.13045
333.12584
333.12082
333.11526
333.10895
333.1014
333.09145
333.07485
333.14767
333.14714
333.14592
333.14395
333.14128
333.13801
333.13425
333.13007
333.1255
333.1205
333.11499
333.10872
333.10122
333.09132
333.0748
333.14745
333.1469
333.14562
333.1436
333.14089
333.1376
333.13385
333.12969
333.12515
333.1202
333.11472
333.1085
333.10104
333.0912
333.07475
333.14721
333.14663
333.1453
333.14323
333.14049
333.1372
333.13345
333.12932
333.12481
333.1199
333.11446
333.10828
333.10087
333.09108
333.07471
333.14696
333.14635
333.14497
333.14286
333.14009
333.13679
333.13306
333.12895
333.12448
333.1196
333.1142
333.10806
333.1007
333.09096
333.07466
333.14668
333.14605
333.14463
333.14248
333.13969
333.13639
333.13267
333.12859
333.12415
333.1193
333.11395
333.10785
333.10053
333.09084
333.07461
333.14639
333.14573
333.14428
333.14209
333.13929
333.13599
333.13229
333.12823
333.12382
333.11901
333.11369
333.10764
333.10036
333.09072
333.07456
333.14608
333.1454
333.14391
333.14169
333.13888
333.13559
333.13191
333.12787
333.1235
333.11872
333.11344
333.10743
333.10019
333.09061
333.07451
333.14575
333.14505
333.14353
333.14129
333.13847
333.13519
333.13153
333.12752
333.12318
333.11844
333.1132
333.10722
333.10003
333.09049
333.07446
333.1454
333.14468
333.14314
333.14089
333.13806
333.13479
333.13115
333.12717
333.12286
333.11816
333.11295
333.10702
333.09987
333.09037
333.07441
333.14503
333.1443
333.14274
333.14047
333.13765
333.1344
333.13078
333.12683
333.12255
333.11788
333.11271
333.10681
333.0997
333.09026
333.07436
333.14464
333.1439
333.14233
333.14006
333.13724
333.134
333.13041
333.12649
333.12224
333.11761
333.11247
333.10661
333.09954
333.09014
333.0743
333.14423
333.14349
333.14191
333.13964
333.13683
333.13361
333.13004
333.12615
333.12193
333.11733
333.11224
333.10641
333.09938
333.09003
333.07425
333.14381
333.14307
333.14148
333.13921
333.13642
333.13322
333.12967
333.12581
333.12163
333.11707
333.11201
333.10622
333.09923
333.08991
333.0742
333.14337
333.14263
333.14104
333.13878
333.13601
333.13283
333.12931
333.12548
333.12133
333.1168
333.11177
333.10602
333.09907
333.0898
333.07414
333.14292
333.14218
333.1406
333.13835
333.1356
333.13244
333.12895
333.12515
333.12103
333.11654
333.11155
333.10583
333.09891
333.08969
333.07409
333.14246
333.14172
333.14015
333.13792
333.13518
333.13205
333.12859
333.12482
333.12074
333.11627
333.11132
333.10564
333.09876
333.08957
333.07403
333.14198
333.14125
333.13969
333.13748
333.13477
333.13166
333.12823
333.1245
333.12044
333.11602
333.11109
333.10545
333.0986
333.08946
333.07397
333.1415
333.14077
333.13923
333.13704
333.13436
333.13128
333.12788
333.12417
333.12015
333.11576
333.11087
333.10526
333.09845
333.08935
333.07392
333.141
333.14028
333.13876
333.1366
333.13394
333.1309
333.12753
333.12385
333.11987
333.1155
333.11065
333.10507
333.0983
333.08923
333.07386
333.1405
333.13979
333.13829
333.13616
333.13353
333.13051
333.12717
333.12354
333.11958
333.11525
333.11043
333.10488
333.09815
333.08912
333.0738
333.13999
333.1393
333.13782
333.13571
333.13311
333.13013
333.12683
333.12322
333.1193
333.115
333.11021
333.10469
333.09799
333.08901
333.07374
333.13948
333.1388
333.13734
333.13526
333.1327
333.12975
333.12648
333.1229
333.11901
333.11475
333.10999
333.10451
333.09784
333.08889
333.07367
333.13896
333.13829
333.13686
333.13482
333.13229
333.12937
333.12613
333.12259
333.11873
333.1145
333.10977
333.10433
333.09769
333.08878
333.07361
333.13844
333.13779
333.13638
333.13437
333.13187
333.12899
333.12579
333.12228
333.11846
333.11425
333.10956
333.10414
333.09754
333.08866
333.07354
333.13792
333.13728
333.1359
333.13392
333.13146
333.12862
333.12545
333.12197
333.11818
333.11401
333.10934
333.10396
333.09739
333.08855
333.07348
333.1374
333.13677
333.13542
333.13347
333.13105
333.12824
333.12511
333.12166
333.1179
333.11377
333.10913
333.10378
333.09724
333.08843
333.07341
333.13688
333.13626
333.13493
333.13302
333.13064
333.12787
333.12476
333.12136
333.11763
333.11352
333.10892
333.1036
333.09709
333.08832
333.07334
333.13636
333.13575
333.13445
333.13258
333.13023
333.12749
333.12443
333.12105
333.11736
333.11328
333.10871
333.10341
333.09694
333.0882
333.07327
333.13584
333.13524
333.13397
333.13213
333.12982
333.12712
333.12409
333.12075
333.11708
333.11304
333.1085
333.10323
333.09679
333.08808
333.0732
333.13532
333.13474
333.13349
333.13168
333.12941
333.12675
333.12375
333.12045
333.11681
333.1128
333.10829
333.10305
333.09664
333.08797
333.07313
333.1348
333.13423
333.13301
333.13124
333.129
333.12638
333.12342
333.12014
333.11654
333.11256
333.10808
333.10287
333.09649
333.08785
333.07305
333.13428
333.13373
333.13254
333.1308
333.1286
333.12601
333.12308
333.11984
333.11628
333.11232
333.10787
333.10269
333.09634
333.08773
333.07297
333.13377
333.13323
333.13206
333.13036
333.12819
333.12564
333.12275
333.11954
333.11601
333.11208
333.10766
333.10251
333.09618
333.08761
333.0729
333.13327
333.13273
333.13159
333.12992
333.12779
333.12527
333.12242
333.11925
333.11574
333.11185
333.10745
333.10233
333.09603
333.08749
333.07282
333.13276
333.13224
333.13112
333.12948
333.12739
333.12491
333.12209
333.11895
333.11547
333.11161
333.10724
333.10215
333.09588
333.08737
333.07273
333.13226
333.13175
333.13066
333.12904
333.12699
333.12454
333.12176
333.11865
333.11521
333.11137
333.10703
333.10197
333.09573
333.08724
333.07265
333.13176
333.13127
333.13019
333.12861
333.12659
333.12418
333.12143
333.11836
333.11494
333.11114
333.10683
333.10179
333.09557
333.08712
333.07256
333.13127
333.13079
333.12973
333.12818
333.12619
333.12382
333.1211
333.11806
333.11468
333.1109
333.10662
333.10161
333.09542
333.08699
333.07248
333.13078
333.13031
333.12928
333.12776
333.1258
333.12346
333.12078
333.11777
333.11441
333.11067
333.10641
333.10142
333.09526
333.08686
333.07239
333.1303
333.12984
333.12883
333.12733
333.12541
333.1231
333.12045
333.11747
333.11415
333.11043
333.1062
333.10124
333.09511
333.08674
333.07229
333.12982
333.12937
333.12838
333.12691
333.12502
333.12275
333.12013
333.11718
333.11389
333.1102
333.10599
333.10106
333.09495
333.08661
333.0722
333.12935
333.1289
333.12793
333.1265
333.12463
333.12239
333.11981
333.11689
333.11363
333.10996
333.10578
333.10088
333.09479
333.08647
333.0721
333.12888
333.12845
333.12749
333.12608
333.12425
333.12204
333.11949
333.1166
333.11336
333.10973
333.10558
333.10069
333.09463
333.08634
333.072
333.12842
333.12799
333.12706
333.12567
333.12387
333.12169
333.11917
333.11631
333.1131
333.10949
333.10537
333.10051
333.09447
333.08621
333.0719
333.12796
333.12754
333.12663
333.12526
333.12349
333.12134
333.11885
333.11602
333.11284
333.10926
333.10516
333.10032
333.09431
333.08607
333.0718
333.12751
333.1271
333.1262
333.12486
333.12311
333.12099
333.11853
333.11573
333.11258
333.10903
333.10495
333.10014
333.09415
333.08593
333.0717
333.12706
333.12666
333.12578
333.12446
333.12274
333.12065
333.11822
333.11545
333.11232
333.10879
333.10474
333.09995
333.09399
333.0858
333.07159
333.12662
333.12622
333.12536
333.12406
333.12237
333.12031
333.1179
333.11516
333.11206
333.10856
333.10453
333.09976
333.09382
333.08566
333.07148
333.12618
333.12579
333.12494
333.12367
333.122
333.11997
333.11759
333.11488
333.11181
333.10832
333.10432
333.09958
333.09366
333.08551
333.07137
333.12575
333.12537
333.12453
333.12328
333.12164
333.11963
333.11728
333.11459
333.11155
333.10809
333.10411
333.09939
333.09349
333.08537
333.07125
333.12532
333.12494
333.12412
333.12289
333.12127
333.11929
333.11697
333.11431
333.11129
333.10786
333.1039
333.0992
333.09332
333.08522
333.07113
333.1249
333.12453
333.12372
333.12251
333.12091
333.11896
333.11666
333.11403
333.11103
333.10762
333.10369
333.09901
333.09315
333.08508
333.07101
333.12448
333.12412
333.12332
333.12213
333.12056
333.11863
333.11636
333.11375
333.11078
333.10739
333.10347
333.09882
333.09298
333.08493
333.07089
333.12407
333.12371
333.12293
333.12175
333.1202
333.1183
333.11605
333.11347
333.11052
333.10716
333.10326
333.09863
333.09281
333.08478
333.07077
333.12366
333.12331
333.12254
333.12138
333.11985
333.11797
333.11575
333.11319
333.11026
333.10692
333.10305
333.09844
333.09264
333.08462
333.07064
333.12325
333.12291
333.12215
333.12101
333.1195
333.11765
333.11545
333.11291
333.11001
333.10669
333.10284
333.09824
333.09246
333.08447
333.07051
333.12285
333.12251
333.12177
333.12065
333.11916
333.11732
333.11515
333.11263
333.10975
333.10645
333.10262
333.09805
333.09229
333.08431
333.07038
333.12246
333.12213
333.12139
333.12028
333.11882
333.117
333.11485
333.11236
333.1095
333.10622
333.10241
333.09785
333.09211
333.08416
333.07025
333.12207
333.12174
333.12102
333.11993
333.11848
333.11668
333.11455
333.11208
333.10925
333.10599
333.1022
333.09766
333.09193
333.084
333.07011
333.12168
333.12136
333.12065
333.11957
333.11814
333.11637
333.11426
333.11181
333.10899
333.10575
333.10198
333.09746
333.09176
333.08384
333.06997
333.1213
333.12098
333.12028
333.11922
333.11781
333.11605
333.11396
333.11153
333.10874
333.10552
333.10177
333.09726
333.09158
333.08367
333.06983
333.12093
333.12061
333.11992
333.11887
333.11747
333.11574
333.11367
333.11126
333.10849
333.10529
333.10155
333.09707
333.09139
333.08351
333.06969
333.12055
333.12024
333.11956
333.11852
333.11715
333.11543
333.11338
333.11099
333.10824
333.10505
333.10134
333.09687
333.09121
333.08334
333.06955
333.12019
333.11988
333.11921
333.11818
333.11682
333.11512
333.11309
333.11072
333.10798
333.10482
333.10112
333.09667
333.09103
333.08317
333.0694
333.11982
333.11952
333.11885
333.11784
333.1165
333.11482
333.1128
333.11045
333.10773
333.10459
333.1009
333.09647
333.09084
333.08301
333.06925
333.11946
333.11916
333.11851
333.11751
333.11617
333.11451
333.11252
333.11019
333.10748
333.10436
333.10069
333.09626
333.09066
333.08283
333.0691
333.1191
333.11881
333.11816
333.11717
333.11586
333.11421
333.11223
333.10992
333.10723
333.10412
333.10047
333.09606
333.09047
333.08266
333.06895
333.11875
333.11846
333.11782
333.11684
333.11554
333.11391
333.11195
333.10965
333.10699
333.10389
333.10025
333.09586
333.09028
333.08249
333.06879
333.1184
333.11811
333.11748
333.11652
333.11523
333.11361
333.11167
333.10939
333.10674
333.10366
333.10003
333.09566
333.09009
333.08231
333.06863
333.11806
333.11777
333.11715
333.11619
333.11492
333.11331
333.11139
333.10912
333.10649
333.10342
333.09982
333.09545
333.0899
333.08213
333.06847
333.11771
333.11743
333.11681
333.11587
333.11461
333.11302
333.11111
333.10886
333.10624
333.10319
333.0996
333.09525
333.08971
333.08196
333.06831
333.11738
333.1171
333.11649
333.11555
333.1143
333.11273
333.11083
333.1086
333.10599
333.10296
333.09938
333.09504
333.08951
333.08178
333.06815
333.11704
333.11677
333.11616
333.11524
333.114
333.11244
333.11056
333.10834
333.10575
333.10272
333.09916
333.09483
333.08932
333.08159
333.06798
333.11671
333.11644
333.11584
333.11492
333.11369
333.11215
333.11028
333.10808
333.1055
333.10249
333.09894
333.09462
333.08912
333.08141
333.06781
333.11638
333.11611
333.11552
333.11461
333.1134
333.11186
333.11001
333.10782
333.10525
333.10226
333.09872
333.09442
333.08893
333.08123
333.06765
333.11606
333.11579
333.1152
333.11431
333.1131
333.11158
333.10974
333.10756
333.10501
333.10203
333.0985
333.09421
333.08873
333.08104
333.06748
333.11573
333.11547
333.11489
333.114
333.1128
333.11129
333.10946
333.1073
333.10476
333.10179
333.09828
333.094
333.08853
333.08085
333.0673
333.11541
333.11515
333.11458
333.1137
333.11251
333.11101
333.10919
333.10704
333.10452
333.10156
333.09806
333.09379
333.08833
333.08067
333.06713
333.1151
333.11484
333.11427
333.1134
333.11222
333.11073
333.10893
333.10679
333.10427
333.10133
333.09783
333.09358
333.08813
333.08048
333.06695
333.11478
333.11453
333.11396
333.1131
333.11193
333.11045
333.10866
333.10653
333.10403
333.1011
333.09761
333.09337
333.08793
333.08028
333.06678
333.11447
333.11422
333.11366
333.1128
333.11164
333.11017
333.10839
333.10628
333.10379
333.10086
333.09739
333.09315
333.08773
333.08009
333.0666
333.11417
333.11391
333.11336
333.11251
333.11136
333.1099
333.10813
333.10602
333.10354
333.10063
333.09717
333.09294
333.08752
333.0799
333.06642
333.11386
333.11361
333.11306
333.11221
333.11107
333.10963
333.10786
333.10577
333.1033
333.1004
333.09694
333.09273
333.08732
333.07971
333.06624
333.11356
333.11331
333.11276
333.11192
333.11079
333.10935
333.1076
333.10552
333.10306
333.10017
333.09672
333.09251
333.08711
333.07951
333.06605
333.11326
333.11301
333.11247
333.11164
333.11051
333.10908
333.10734
333.10526
333.10282
333.09993
333.0965
333.0923
333.08691
333.07931
333.06587
333.11296
333.11272
333.11218
333.11135
333.11023
333.10881
333.10708
333.10501
333.10258
333.0997
333.09628
333.09208
333.0867
333.07912
333.06568
333.11266
333.11242
333.11189
333.11107
333.10995
333.10854
333.10682
333.10476
333.10233
333.09947
333.09605
333.09187
333.08649
333.07892
333.06549
333.11237
333.11213
333.1116
333.11078
333.10968
333.10828
333.10656
333.10451
333.10209
333.09924
333.09583
333.09165
333.08629
333.07872
333.06531
333.11208
333.11184
333.11131
333.1105
333.1094
333.10801
333.1063
333.10426
333.10185
333.099
333.0956
333.09144
333.08608
333.07852
333.06512
333.11179
333.11155
333.11103
333.11022
333.10913
333.10774
333.10605
333.10401
333.10161
333.09877
333.09538
333.09122
333.08587
333.07832
333.06493
333.1115
333.11127
333.11075
333.10995
333.10886
333.10748
333.10579
333.10377
333.10137
333.09854
333.09515
333.091
333.08566
333.07811
333.06473
333.11122
333.11098
333.11047
333.10967
333.10859
333.10722
333.10554
333.10352
333.10113
333.09831
333.09493
333.09078
333.08545
333.07791
333.06454
333.11094
333.1107
333.11019
333.1094
333.10832
333.10696
333.10528
333.10327
333.10089
333.09808
333.0947
333.09057
333.08524
333.07771
333.06435
333.11065
333.11042
333.10991
333.10913
333.10806
333.1067
333.10503
333.10303
333.10065
333.09784
333.09448
333.09035
333.08502
333.0775
333.06415
333.11038
333.11015
333.10964
333.10886
333.10779
333.10644
333.10478
333.10278
333.10042
333.09761
333.09425
333.09013
333.08481
333.0773
333.06396
333.1101
333.10987
333.10936
333.10859
333.10753
333.10618
333.10452
333.10254
333.10018
333.09738
333.09403
333.08991
333.0846
333.07709
333.06376
333.10982
333.1096
333.10909
333.10832
333.10727
333.10592
333.10427
333.10229
333.09994
333.09715
333.0938
333.08969
333.08438
333.07688
333.06356
333.10955
333.10932
333.10882
333.10805
333.107
333.10567
333.10402
333.10205
333.0997
333.09692
333.09358
333.08947
333.08417
333.07668
333.06336
333.10928
333.10905
333.10855
333.10779
333.10674
333.10541
333.10377
333.1018
333.09946
333.09668
333.09335
333.08925
333.08396
333.07647
333.06316
333.10901
333.10878
333.10829
333.10752
333.10648
333.10516
333.10352
333.10156
333.09923
333.09645
333.09312
333.08903
333.08374
333.07626
333.06296
333.10874
333.10852
333.10802
333.10726
333.10623
333.1049
333.10328
333.10132
333.09899
333.09622
333.0929
333.08881
333.08352
333.07605
333.06276
333.10847
333.10825
333.10776
333.107
333.10597
333.10465
333.10303
333.10107
333.09875
333.09599
333.09267
333.08858
333.08331
333.07584
333.06256
333.1082
333.10798
333.10749
333.10674
333.10571
333.1044
333.10278
333.10083
333.09851
333.09576
333.09244
333.08836
333.08309
333.07563
333.06235
333.10794
333.10772
333.10723
333.10648
333.10546
333.10415
333.10253
333.10059
333.09828
333.09552
333.09222
333.08814
333.08287
333.07542
333.06215
333.10768
333.10746
333.10697
333.10622
333.1052
333.1039
333.10229
333.10035
333.09804
333.09529
333.09199
333.08792
333.08266
333.07521
333.06194
333.10741
333.1072
333.10671
333.10597
333.10495
333.10365
333.10204
333.10011
333.0978
333.09506
333.09176
333.0877
333.08244
333.07499
333.06174
333.10715
333.10694
333.10645
333.10571
333.1047
333.1034
333.1018
333.09987
333.09757
333.09483
333.09153
333.08747
333.08222
333.07478
333.06153
333.10689
333.10668
333.1062
333.10546
333.10445
333.10315
333.10156
333.09963
333.09733
333.0946
333.09131
333.08725
333.082
333.07457
333.06132
333.10664
333.10642
333.10594
333.1052
333.1042
333.1029
333.10131
333.09939
333.0971
333.09437
333.09108
333.08703
333.08178