/*--------------------------------*- C++ -*----------------------------------*\
| =========                 |                                                 |
| \\      /  F ield         | OpenFOAM: The Open Source CFD Toolbox           |
|  \\    /   O peration     | Version:  2506                                  |
|   \\  /    A nd           | Website:  www.openfoam.com                      |
|    \\/     M anipulation  |                                                 |
\*---------------------------------------------------------------------------*/
FoamFile
{
    version     2.0;
    format      ascii;
    arch        "LSB;label=32;scalar=64";
    class       volVectorField;
    location    "9000/water";
    object      U;
}
// * * * * * * * * * * * * * * * * * * * * * * * * * * * * * * * * * * * * * //

dimensions      [0 1 -1 0 0 0 0];

internalField   nonuniform List<vector> 
6000
(
(0.25028648 -3.4193492e-05 1.1422136e-18)
(0.25028875 -7.4648812e-05 -4.9467701e-18)
(0.25029344 -0.00011804414 -8.930806e-19)
(0.25030059 -0.00016540046 -5.7132822e-19)
(0.25031046 -0.00021487336 -2.649056e-19)
(0.25032332 -0.00026685039 -3.963148e-19)
(0.25033948 -0.00032192175 -2.5295759e-19)
(0.25035939 -0.00038078672 1.0200091e-19)
(0.25038356 -0.00044434477 9.6686226e-20)
(0.25041254 -0.00051362452 8.139711e-20)
(0.25044587 -0.00058677559 3.6853023e-20)
(0.25047643 -0.00065822056 8.2670003e-20)
(0.25046276 -0.00078466513 -1.9251641e-19)
(0.25013031 -0.0015987837 -9.9111114e-20)
(0.24584996 0.0019968142 -1.7988533e-19)
(0.25104035 -3.7261304e-05 4.7011523e-18)
(0.25104514 -8.9895979e-05 -3.5977233e-18)
(0.2510558 -0.00014352114 -1.9143082e-18)
(0.25107219 -0.00020025424 -1.5243023e-19)
(0.2510947 -0.0002571822 1.1379086e-18)
(0.25112368 -0.00031440571 -2.3647579e-19)
(0.25115965 -0.00037188242 -3.6876768e-19)
(0.25120324 -0.00042947839 1.6713956e-19)
(0.2512551 -0.00048709454 2.098561e-19)
(0.25131538 -0.00054561245 1.0879606e-19)
(0.25138039 -0.00060405492 1.5692967e-19)
(0.25142587 -0.00063755821 2.4664424e-19)
(0.25133175 -0.00059164843 -2.0579136e-19)
(0.25037931 -0.0014370973 -1.7473752e-19)
(0.24194277 0.00099520264 -2.3728522e-19)
(0.25195051 -3.6589028e-05 -1.3505035e-18)
(0.25195563 -9.0250612e-05 3.3938955e-18)
(0.25196731 -0.00014313025 1.1683971e-18)
(0.25198528 -0.00019912655 -8.9398287e-19)
(0.25200977 -0.00025508716 1.0042943e-18)
(0.25204101 -0.0003112558 -8.1747685e-19)
(0.25207932 -0.00036762123 -8.9019775e-19)
(0.25212505 -0.00042413945 -8.6872603e-19)
(0.25217823 -0.00048056787 -5.4745997e-19)
(0.25223708 -0.0005377572 -2.7313902e-20)
(0.25229114 -0.00060007155 -2.1042113e-19)
(0.25229033 -0.00065419843 -3.1519367e-19)
(0.25200573 -0.00054460881 -3.0109392e-19)
(0.25014357 -0.0012195308 -2.4303203e-19)
(0.23758495 0.00043820543 -3.7119154e-19)
(0.25283353 -3.7446604e-05 -2.6774693e-18)
(0.25283867 -9.3611088e-05 8.2793625e-21)
(0.25285018 -0.00014906892 1.874437e-18)
(0.25286783 -0.00020791578 -4.9056373e-19)
(0.25289182 -0.00026672308 5.346773e-19)
(0.25292238 -0.00032582165 -2.7750691e-19)
(0.25295982 -0.00038519269 -5.7448299e-19)
(0.25300432 -0.00044485276 -8.0135713e-19)
(0.25305525 -0.00050441426 -4.3760569e-19)
(0.25310809 -0.00056332944 2.5807478e-19)
(0.25314261 -0.00062607506 -3.6719628e-19)
(0.25307635 -0.00069910336 -3.1544781e-19)
(0.25255493 -0.0005845712 -2.0320448e-19)
(0.24963188 -0.001063787 -1.4861346e-19)
(0.23320285 0.0001058672 -2.3292199e-19)
(0.25372643 -3.8342944e-05 1.0883021e-17)
(0.2537317 -9.6368692e-05 9.6286555e-19)
(0.25374347 -0.00015372841 1.3420521e-18)
(0.25376156 -0.00021453144 1.8767139e-18)
(0.25378616 -0.00027516439 1.1385257e-18)
(0.25381749 -0.00033599427 1.1562166e-18)
(0.25385581 -0.00039694563 5.2423929e-19)
(0.25390101 -0.00045805575 3.3254086e-19)
(0.25395133 -0.00051907431 2.8525976e-19)
(0.25399821 -0.00057855465 2.3095667e-19)
(0.25400834 -0.00063773998 1.8377583e-20)
(0.25386022 -0.0007177221 8.3826738e-20)
(0.25305737 -0.00062191547 1.1149664e-19)
(0.24895451 -0.00093835859 3.1569061e-20)
(0.22897365 -8.3792338e-05 -1.2468259e-20)
(0.25464474 -3.8661619e-05 2.8317469e-18)
(0.25465014 -9.7320118e-05 -1.4576417e-18)
(0.2546622 -0.00015516462 1.3685047e-18)
(0.25468073 -0.00021648309 1.3318313e-18)
(0.2547059 -0.00027758564 -1.4189738e-19)
(0.25473792 -0.000338881 6.2609072e-19)
(0.25477689 -0.00040025681 1.2167148e-19)
(0.25482222 -0.000461728 8.5463324e-20)
(0.25487049 -0.00052322808 3.1246531e-19)
(0.2549078 -0.000583188 2.0671809e-19)
(0.25488519 -0.00063896641 1.4754593e-19)
(0.25463685 -0.00071821651 -1.3986797e-19)
(0.25350729 -0.0006469875 4.8403789e-21)
(0.248129 -0.00083894719 -4.7417222e-22)
(0.2249409 -0.00018589273 -7.3540067e-20)
(0.25557031 -3.8595293e-05 -1.6174404e-18)
(0.25557581 -9.7309346e-05 -3.2591397e-18)
(0.25558805 -0.00015511983 -3.3526088e-19)
(0.25560682 -0.00021642526 2.3073411e-20)
(0.2556323 -0.00027749359 -1.4121789e-18)
(0.25566463 -0.00033876345 1.4336963e-19)
(0.25570371 -0.00040009734 -2.4911724e-19)
(0.25574825 -0.00046144626 4.1859798e-20)
(0.25579256 -0.00052279714 3.8613947e-19)
(0.25581623 -0.0005828814 1.1779983e-19)
(0.25575267 -0.00063600478 1.7246285e-19)
(0.25538743 -0.00071016267 -9.7540724e-20)
(0.25388915 -0.00066107344 -6.7095892e-21)
(0.24716598 -0.00076077854 7.1184395e-21)
(0.22112141 -0.00023459296 -7.8579127e-20)
(0.25649134 -3.8297106e-05 3.5180967e-18)
(0.25649692 -9.6712128e-05 2.2702877e-18)
(0.25650928 -0.00015419069 8.2477128e-19)
(0.25652824 -0.00021515485 3.0774495e-20)
(0.25655393 -0.00027585718 -8.3232032e-19)
(0.25658641 -0.0003367553 -3.4623691e-19)
(0.25662528 -0.00039769653 2.5550841e-19)
(0.2566683 -0.00045856441 2.3235536e-19)
(0.25670691 -0.00051927104 1.4259952e-19)
(0.25671305 -0.00057893859 -4.5988449e-19)
(0.25660095 -0.00063003278 1.1337195e-20)
(0.25610359 -0.00069722485 1.1667313e-19)
(0.25419746 -0.0006651972 -1.5716106e-20)
(0.24608527 -0.00069788903 5.8277286e-20)
(0.21752738 -0.00025081848 -6.2303417e-20)
(0.25740382 -3.7852859e-05 -4.8125858e-18)
(0.25740947 -9.5689494e-05 -4.775531e-19)
(0.25742193 -0.00015257331 1.5429333e-19)
(0.25744104 -0.00021291358 5.9923474e-19)
(0.25746687 -0.00027297291 7.2172556e-19)
(0.25749936 -0.0003332193 -2.4469485e-19)
(0.2575377 -0.00039348924 2.4906002e-19)
(0.2575784 -0.00045361301 2.948139e-19)
(0.25760945 -0.00051335259 1.386003e-19)
(0.25759421 -0.00057212213 1.0081153e-19)
(0.25742635 -0.00062159363 1.0955017e-19)
(0.25678237 -0.00068144217 1.9969403e-19)
(0.25443121 -0.00066103685 -3.2010914e-20)
(0.24490935 -0.00064561644 3.7781679e-20)
(0.21416513 -0.00024776584 -3.7077469e-20)
(0.25830515 -3.7308638e-05 1.2377177e-18)
(0.25831084 -9.4372769e-05 -4.4391973e-19)
(0.25832339 -0.00015047649 -8.3155931e-19)
(0.2583426 -0.00020999612 7.0084059e-19)
(0.25836849 -0.00026922145 1.0087271e-19)
(0.25840083 -0.00032862339 1.3690745e-19)
(0.25843826 -0.00038802595 2.6142935e-19)
(0.25847573 -0.00044722018 1.4150816e-19)
(0.25849727 -0.00050579279 6.4174461e-21)
(0.25845683 -0.00056328987 2.9077687e-19)
(0.25822634 -0.00061131676 1.2934688e-19)
(0.25742154 -0.00066417743 -6.3059752e-21)
(0.2545896 -0.00065044234 3.7653277e-21)
(0.24365871 -0.00060064453 -3.7157416e-20)
(0.21103455 -0.00023378679 -2.5114377e-20)
(0.259193 -3.669388e-05 8.1057151e-18)
(0.25919873 -9.285746e-05 4.8633451e-18)
(0.25921134 -0.00014806165 -1.7283582e-18)
(0.25923061 -0.00020663289 3.7126218e-19)
(0.25925648 -0.0002648995 1.0755797e-18)
(0.25928848 -0.00032332972 3.1809494e-19)
(0.25932457 -0.00038173097 2.5393916e-19)
(0.25935785 -0.00043986308 9.7948248e-20)
(0.25936788 -0.00049714489 -1.2340643e-19)
(0.25929853 -0.00055310431 -6.6577598e-20)
(0.2589988 -0.00059970361 -2.2636661e-20)
(0.25801896 -0.00064623362 -3.131313e-20)
(0.25467145 -0.00063499349 4.5349515e-20)
(0.24235144 -0.00056062195 -7.4674135e-20)
(0.20813123 -0.0002141088 -5.2462836e-20)
(0.26006576 -3.6034055e-05 4.8963361e-18)
(0.26007152 -9.1214285e-05 5.3589379e-18)
(0.26008417 -0.00014544281 -6.9499069e-19)
(0.26010346 -0.00020298347 2.5944351e-19)
(0.26012923 -0.00026021093 5.4107622e-19)
(0.2601607 -0.0003175869 4.2257768e-19)
(0.26019497 -0.00037489796 2.4854604e-19)
(0.26022303 -0.0004318747 3.4602768e-19)
(0.26021952 -0.00048779066 2.1644776e-19)
(0.26011767 -0.00054204301 -4.4969201e-20)
(0.25974224 -0.00058714002 -8.640675e-21)
(0.25857279 -0.00062806077 7.9293282e-20)
(0.25467557 -0.00061594005 1.0061966e-19)
(0.24100379 -0.00052390611 -1.7494443e-20)
(0.20544863 -0.00019196316 4.5022407e-20)
(0.2609225 -3.5349633e-05 2.7380992e-18)
(0.26092828 -8.9497286e-05 4.4864166e-18)
(0.26094096 -0.00014270541 2.0153533e-19)
(0.26096023 -0.00019916671 5.8955586e-19)
(0.2609858 -0.00025530722 1.2312116e-19)
(0.2610165 -0.00031157921 3.5326595e-19)
(0.26104844 -0.00036774517 6.1757791e-19)
(0.2610702 -0.00042350433 5.5773534e-19)
(0.26105114 -0.00047801113 3.8172799e-19)
(0.26091327 -0.00053046086 -1.8798651e-19)
(0.2604557 -0.00057393662 1.0936462e-19)
(0.2590814 -0.00060990566 1.5288677e-19)
(0.2546009 -0.00059424331 7.4650364e-20)
(0.23963056 -0.00048937354 3.5833104e-20)
(0.20297926 -0.00016931833 1.0786046e-19)
(0.26176274 -3.4655538e-05 9.6593606e-19)
(0.26176854 -8.7746856e-05 3.802668e-18)
(0.26178122 -0.00013991377 -3.5745415e-19)
(0.26180042 -0.00019527246 1.0053878e-18)
(0.26182568 -0.00025030306 4.2906336e-19)
(0.26185536 -0.00030544608 3.7264364e-19)
(0.26188442 -0.00036043768 4.8061265e-19)
(0.26189878 -0.00041494196 4.2541202e-19)
(0.26186213 -0.00046801763 1.6688455e-19)
(0.2616848 -0.00051862213 8.0624492e-20)
(0.26113855 -0.00056034346 2.7566178e-19)
(0.25954316 -0.00059189152 9.8956993e-20)
(0.25444651 -0.0005706321 4.1745045e-20)
(0.23824529 -0.00045627776 5.1726973e-20)
(0.20071509 -0.00014735259 3.7150292e-20)
(0.26258633 -3.3963061e-05 1.6550948e-18)
(0.26259213 -8.5993781e-05 1.5868874e-18)
(0.26260479 -0.00013711719 3.8976274e-18)
(0.26262388 -0.00019136968 5.8268866e-19)
(0.2626487 -0.00024528655 -1.1810855e-18)
(0.26267708 -0.00029929459 3.3914227e-19)
(0.26270267 -0.00035310243 3.8341447e-19)
(0.26270848 -0.00040633486 1.3218042e-19)
(0.26265224 -0.00045797299 4.0206983e-21)
(0.26243199 -0.00050672605 2.2281224e-19)
(0.26179026 -0.00054656345 3.208865e-19)
(0.25995633 -0.0005740675 9.8061743e-20)
(0.25421177 -0.00054566294 3.5134441e-20)
(0.23686046 -0.00042415214 5.7597365e-20)
(0.19864765 -0.0001267576 -9.7758636e-20)
(0.26339335 -3.32814e-05 2.947034e-18)
(0.26339915 -8.4262741e-05 2.7711208e-18)
(0.26341177 -0.0001343551 3.2172723e-18)
(0.26343068 -0.0001875135 7.7746679e-19)
(0.26345493 -0.00024032822 1.3087112e-18)
(0.26348171 -0.00029321054 6.3233436e-19)
(0.2635032 -0.00034584107 1.4687397e-19)
(0.2634993 -0.00039780175 2.9942362e-20)
(0.26342146 -0.00044800829 1.9035596e-19)
(0.26315482 -0.00049492779 -5.4798416e-20)
(0.26241041 -0.00053276478 2.4973665e-19)
(0.26031893 -0.00055643964 1.5350699e-19)
(0.2538966 -0.000519773 6.8770013e-20)
(0.23548766 -0.00039274464 -1.6490156e-20)
(0.19676807 -0.00010792878 -6.703449e-20)
(0.26418413 -3.2618313e-05 5.1659361e-18)
(0.26418991 -8.2574227e-05 3.340594e-18)
(0.26420246 -0.00013166021 1.4737783e-18)
(0.26422112 -0.0001837496 1.4558843e-18)
(0.26424465 -0.00023548649 1.5527879e-18)
(0.2642695 -0.00028726512 8.1952521e-19)
(0.26428624 -0.00033873796 4.0266493e-19)
(0.26427145 -0.00038944152 1.7098741e-19)
(0.26416998 -0.0004382328 2.9735793e-19)
(0.26385341 -0.00048335173 6.8671907e-20)
(0.26299854 -0.00051908846 9.1108454e-20)
(0.26062878 -0.00053898815 8.4574102e-20)
(0.25350187 -0.00049331965 5.506419e-20)
(0.2341376 -0.00036197184 4.5886075e-20)
(0.19506692 -9.1079356e-05 1.2376311e-20)
(0.26495914 -3.1980325e-05 4.9689145e-18)
(0.2649649 -8.0945389e-05 4.5593424e-18)
(0.26497734 -0.00012905989 1.7230245e-18)
(0.26499568 -0.00018011622 9.7852032e-19)
(0.26501831 -0.00023081031 1.3300986e-18)
(0.26504088 -0.00028151807 9.3896496e-19)
(0.2650522 -0.00033186392 5.9158935e-19)
(0.2650253 -0.00038133727 3.8614173e-19)
(0.26489816 -0.00042873842 3.5625571e-19)
(0.26452796 -0.00047209828 2.5490478e-19)
(0.26355413 -0.00050565096 2.8934131e-20)
(0.2608835 -0.00052167636 9.0718081e-20)
(0.25302971 -0.00046660631 -1.2157767e-20)
(0.23282016 -0.00033188327 7.0556173e-20)
(0.19353413 -7.6303786e-05 5.2351496e-20)
(0.26571903 -3.1372765e-05 2.2894944e-18)
(0.26572475 -7.9390279e-05 3.8063719e-18)
(0.26573705 -0.00012657658 -7.5644885e-19)
(0.26575498 -0.00017664472 5.4029114e-19)
(0.26577653 -0.00022633987 1.2452139e-18)
(0.26579644 -0.0002760185 9.1122307e-19)
(0.26580163 -0.0003252772 5.663044e-19)
(0.26576141 -0.00037355728 5.8313858e-19)
(0.26560652 -0.00041960061 4.6433087e-19)
(0.26517878 -0.00046124612 2.2604052e-19)
(0.26407657 -0.00049254343 6.9698196e-21)
(0.26108058 -0.00050445572 1.2061887e-19)
(0.25248384 -0.000439897 9.6786226e-22)
(0.23154421 -0.00030262987 -4.3158116e-20)
(0.19215888 -6.3609732e-05 1.0798141e-19)
(0.26646455 -3.0799673e-05 5.5698188e-18)
(0.26647021 -7.7919711e-05 8.9047575e-19)
(0.26648233 -0.00012422759 3.1180031e-18)
(0.26649975 -0.0001733593 2.2011621e-18)
(0.26652002 -0.00022210618 -6.1009132e-19)
(0.26653688 -0.0002708044 1.4012406e-18)
(0.26653522 -0.00031902283 1.5097516e-18)
(0.26648042 -0.00036615421 1.3206289e-18)
(0.26629564 -0.00041087723 7.1027237e-19)
(0.26580617 -0.00045085191 -7.1405927e-20)
(0.26456508 -0.00047982866 3.7711384e-19)
(0.26121753 -0.00048726982 2.9177551e-19)
(0.25186982 -0.00041342264 3.4141049e-19)
(0.23031742 -0.00027443217 2.8449094e-19)
(0.1909297 -5.2932835e-05 3.2571576e-19)
(0.26719653 -3.0263687e-05 5.3278791e-18)
(0.26720212 -7.6541023e-05 -1.842208e-18)
(0.26721401 -0.00012202465 3.5648179e-18)
(0.26723083 -0.00017027641 2.705834e-18)
(0.2672496 -0.00021813034 1.1027517e-18)
(0.26726299 -0.00026590165 1.4820033e-18)
(0.26725373 -0.0003131315 1.3573848e-18)
(0.26718309 -0.00035916374 8.8398051e-19)
(0.26696618 -0.00040260692 6.6485451e-19)
(0.26641044 -0.00044094906 -4.353825e-20)
(0.26501868 -0.00046753759 3.1713118e-19)
(0.26129202 -0.00047005901 3.2642878e-19)
(0.25119506 -0.00038738325 3.3095902e-19)
(0.2291461 -0.00024754677 3.4085987e-19)
(0.18983455 -4.41451e-05 2.3054551e-19)
(0.26791589 -2.9765992e-05 -6.6523542e-19)
(0.26792138 -7.5257933e-05 -5.9009838e-19)
(0.26793299 -0.00011997377 1.43507e-18)
(0.26794908 -0.00016740448 1.3915037e-18)
(0.26796613 -0.00021442313 1.9905152e-18)
(0.26797562 -0.00026132351 7.6479379e-19)
(0.267958 -0.00030761887 5.2799792e-19)
(0.26787018 -0.00035260382 2.477029e-19)
(0.2676188 -0.00039480805 1.0968742e-19)
(0.2669918 -0.00043154706 2.8942428e-21)
(0.26543617 -0.00045566687 3.3045165e-20)
(0.2613021 -0.00045276643 1.3712003e-19)
(0.2504687 -0.00036194908 -1.3526718e-20)
(0.22803501 -0.00022223217 2.122114e-20)
(0.18886112 -3.7064087e-05 -3.8600617e-20)
(0.26862352 -2.9306383e-05 5.1927071e-18)
(0.2686289 -7.4070662e-05 1.4115256e-18)
(0.26864017 -0.00011807533 2.9670124e-18)
(0.26865542 -0.00016474413 2.0823316e-18)
(0.26867049 -0.00021098533 1.5870382e-18)
(0.26867563 -0.000257071 1.4466518e-18)
(0.26864885 -0.00030248606 1.2906051e-18)
(0.26854251 -0.00034647515 1.1368875e-18)
(0.26825414 -0.00038747924 7.263901e-19)
(0.26755035 -0.00042263245 -1.9458592e-19)
(0.2658161 -0.00044417905 3.368275e-19)
(0.26124652 -0.00043534493 3.7760531e-19)
(0.24970133 -0.00033726333 3.366677e-19)
(0.22698727 -0.00019871676 1.7495165e-19)
(0.18799711 -3.1466399e-05 2.080706e-19)
(0.26932033 -2.8883461e-05 4.1610426e-18)
(0.26932558 -7.2976356e-05 -5.1448482e-19)
(0.26933645 -0.00011632481 8.2631334e-19)
(0.26935072 -0.00016228909 1.6812822e-18)
(0.26936357 -0.0002078089 1.7683221e-18)
(0.26936389 -0.00025313433 1.1941961e-18)
(0.26932713 -0.0002977213 1.1055187e-18)
(0.26920083 -0.00034076321 9.082225e-19)
(0.2688728 -0.00038060158 8.6911358e-19)
(0.26808605 -0.00041417146 2.229673e-19)
(0.26615679 -0.00043300583 2.5032073e-19)
(0.26112496 -0.00041776402 2.6714843e-19)
(0.24890441 -0.00031344658 2.760987e-19)
(0.22600436 -0.00017717261 2.7358151e-19)
(0.18723056 -2.7105586e-05 1.5249304e-19)
(0.27000719 -2.849491e-05 9.8146022e-19)
(0.27001228 -7.1969744e-05 2.9387847e-18)
(0.27002267 -0.00011471384 2.4082041e-18)
(0.27003582 -0.00016002771 2.2945198e-18)
(0.27004618 -0.00020487885 8.3285451e-19)
(0.27004119 -0.00024949516 1.3249088e-18)
(0.2699936 -0.00029330262 9.7862702e-19)
(0.26984584 -0.00033544136 9.2084491e-19)
(0.26947524 -0.00037414209 6.1759264e-19)
(0.2685986 -0.00040611399 3.168543e-19)
(0.26645635 -0.00042205446 3.7427255e-19)
(0.2609383 -0.00040001524 2.2941997e-19)
(0.24808975 -0.00029060213 3.1473101e-19)
(0.22508629 -0.00015769827 3.571946e-19)
(0.18655015 -2.3732129e-05 1.2095679e-19)
(0.27068489 -2.8137826e-05 7.3896348e-18)
(0.2706898 -7.1043907e-05 3.6528861e-18)
(0.27069965 -0.00011323138 3.9529126e-18)
(0.27071153 -0.00015794462 3.9057271e-18)
(0.2707191 -0.00020217545 1.5054583e-18)
(0.27070829 -0.00024612933 2.2166624e-18)
(0.27064898 -0.00028920108 2.0544687e-18)
(0.27047818 -0.00033047455 1.749408e-18)
(0.27006181 -0.00036805783 9.3360056e-19)
(0.26908753 -0.00039839812 3.4930991e-19)
(0.26671278 -0.00041121648 6.0111467e-19)
(0.26068881 -0.00038211515 6.5631034e-19)
(0.24726882 -0.00026882041 7.7084009e-19)
(0.22423175 -0.00014031231 6.166427e-19)
(0.18594537 -2.1112146e-05 3.605158e-19)
(0.27135418 -2.7809011e-05 2.6743122e-18)
(0.27135887 -7.0191041e-05 4.3450883e-18)
(0.2713681 -0.00011186497 2.8845877e-18)
(0.27137855 -0.00015602247 1.9641399e-18)
(0.27138303 -0.00019967637 2.6258137e-18)
(0.27136587 -0.00024300948 1.2315662e-18)
(0.27129391 -0.00028538386 1.2952027e-18)
(0.27109836 -0.000325823 1.0165997e-18)
(0.27063272 -0.00036230005 5.6838861e-19)
(0.26955206 -0.00039095432 3.8850952e-19)
(0.26692403 -0.00040037783 1.4723001e-19)
(0.26038022 -0.00036410564 4.0395867e-19)
(0.24645221 -0.00024818088 3.815722e-19)
(0.22343841 -0.00012495718 2.8831923e-19)
(0.18540672 -1.904183e-05 1.4978476e-19)
(0.27201571 -2.7505236e-05 5.6128966e-19)
(0.27202015 -6.9403099e-05 4.9947585e-18)
(0.27202866 -0.00011060176 3.4224991e-18)
(0.27203751 -0.00015424331 1.9583907e-18)
(0.2720386 -0.00019735858 2.4294445e-18)
(0.27201452 -0.00024010733 1.6161284e-18)
(0.27192892 -0.00028181693 1.2790502e-18)
(0.2717068 -0.00032144525 7.8799985e-19)
(0.27118802 -0.00035681747 6.5393222e-19)
(0.2699912 -0.00038370884 3.561937e-19)
(0.26708822 -0.000389429 2.7056566e-19)
(0.26001771 -0.00034605163 3.0476073e-19)
(0.24564917 -0.00022875086 3.5810604e-19)
(0.22270325 -0.00011151161 2.0258899e-19)
(0.18492573 -1.7355843e-05 2.3114874e-19)
(0.27267005 -2.7223403e-05 2.1842695e-18)
(0.27267421 -6.8672268e-05 1.3921798e-18)
(0.27268192 -0.00010942927 1.2032397e-18)
(0.27268898 -0.00015258973 2.4914042e-18)
(0.27268634 -0.00019519966 1.9745989e-18)
(0.27265476 -0.00023739527 1.8008041e-18)
(0.27255447 -0.00027846699 1.4944005e-18)
(0.2723038 -0.00031730047 7.8168853e-19)
(0.27172757 -0.00035155883 6.0660914e-19)
(0.27040369 -0.00037658611 7.885114e-19)
(0.26720375 -0.00037827411 3.1908001e-19)
(0.25960771 -0.00032803713 2.5146752e-19)
(0.24486735 -0.00021058183 3.8194063e-19)
(0.22202277 -9.9808137e-05 1.5728222e-19)
(0.18449494 -1.5929483e-05 2.8711247e-19)
(0.27331772 -2.6960666e-05 4.9484236e-18)
(0.27332155 -6.7991274e-05 3.2485181e-18)
(0.27332837 -0.00010833587 3.3843501e-18)
(0.27333345 -0.00015104547 2.7495284e-18)
(0.27332673 -0.00019317869 8.0388728e-19)
(0.27328702 -0.00023484751 1.4436514e-18)
(0.27317093 -0.0002753027 1.2943215e-18)
(0.27288957 -0.00031334989 8.7026762e-19)
(0.27225107 -0.00034647442 6.2493695e-19)
(0.27078808 -0.00036951039 5.6885373e-19)
(0.26726952 -0.00036683813 2.9462809e-19)
(0.25915765 -0.0003101602 3.6438982e-19)
(0.24411266 -0.00019370463 2.54951e-19)
(0.22139331 -8.96524e-05 2.6625107e-19)
(0.1841079 -1.4675688e-05 2.0225952e-19)
(0.27395916 -2.6714475e-05 8.3627377e-18)
(0.27396262 -6.7353542e-05 3.9840003e-18)
(0.27396843 -0.00010731104 4.896893e-18)
(0.27397134 -0.00014959583 3.7391287e-18)
(0.27396016 -0.00019127671 1.5265772e-18)
(0.27391168 -0.00023244055 2.2894296e-18)
(0.2737786 -0.00027229533 1.9224138e-18)
(0.27346419 -0.00030955757 1.546246e-18)
(0.27275806 -0.00034151676 1.1322108e-18)
(0.27114274 -0.00036240704 3.0656018e-19)
(0.26728512 -0.00035507155 7.7124907e-19)
(0.25867552 -0.00029252748 7.0502346e-19)
(0.24338933 -0.0001781252 5.4886267e-19)
(0.22081116 -8.084119e-05 5.7808213e-19)
(0.18375901 -1.3538666e-05 2.6205332e-19)
(0.27459475 -2.648259e-05 -4.8271652e-19)
(0.2745978 -6.675326e-05 4.4668395e-18)
(0.27460249 -0.0001063455 3.1954204e-18)
(0.274603 -0.0001482278 2.5386292e-18)
(0.27458699 -0.00018947691 2.8881002e-18)
(0.27452902 -0.00023015345 1.6402585e-18)
(0.27437767 -0.00026941895 1.2497172e-18)
(0.27402763 -0.00030589064 9.8874243e-19)
(0.27324789 -0.00033664079 6.4370244e-19)
(0.27146593 -0.0003552038 3.2937358e-19)
(0.26725094 -0.00034295249 4.0373141e-19)
(0.25816956 -0.00027524859 3.0788377e-19)
(0.24270004 -0.00016382254 3.1376476e-19)
(0.22027275 -7.3177107e-05 1.878322e-19)
(0.18344349 -1.2486087e-05 9.7578575e-20)
(0.27522481 -2.6263071e-05 -1.0357365e-18)
(0.27522741 -6.6185367e-05 4.347716e-18)
(0.27523087 -0.00010543114 3.6185297e-18)
(0.27522875 -0.00014693 2.6980267e-18)
(0.27520748 -0.00018776456 2.5450248e-18)
(0.2751393 -0.00022796774 1.2828311e-18)
(0.27496829 -0.00026665041 9.8713865e-19)
(0.27457978 -0.00030231921 8.3787838e-19)
(0.27371976 -0.0003318036 5.310419e-19)
(0.27175586 -0.00034783257 3.5541556e-19)
(0.26716832 -0.00033048644 2.4857108e-19)
(0.25764777 -0.0002584306 4.019401e-19)
(0.24204621 -0.0001507494 3.2965765e-19)
(0.21977469 -6.6478881e-05 3.2768716e-19)
(0.18315725 -1.1501419e-05 2.4746884e-19)
(0.27584964 -2.6054261e-05 2.7914096e-18)
(0.27585173 -6.5645512e-05 2.1225815e-18)
(0.27585383 -0.00010456099 1.4361273e-18)
(0.27584885 -0.00014569263 2.3887513e-18)
(0.27582189 -0.00018612688 2.3498045e-18)
(0.2757427 -0.00022586725 1.5263528e-18)
(0.27555052 -0.00026396905 9.5058264e-19)
(0.27512041 -0.00029881615 8.9036251e-19)
(0.27417268 -0.00032696406 6.252606e-19)
(0.27201082 -0.00034023144 8.4470245e-19)
(0.26703956 -0.00031770398 4.4989027e-19)
(0.25711762 -0.00024217267 5.9360299e-19)
(0.24142819 -0.00013883591 2.8963692e-19)
(0.21931381 -6.05873e-05 3.6735041e-19)
(0.18289682 -1.0577468e-05 2.5590868e-19)
(0.27646948 -2.5854749e-05 3.8713839e-18)
(0.27647102 -6.5129981e-05 4.9608237e-18)
(0.27647162 -0.00010372909 3.3751892e-18)
(0.27646352 -0.0001445073 2.5855564e-18)
(0.2764304 -0.00018455289 1.5768518e-18)
(0.27633935 -0.00022383791 1.9146377e-18)
(0.27612438 -0.00026135648 1.3839333e-18)
(0.27564919 -0.00029535665 1.0504184e-18)
(0.27460555 -0.00032208226 5.6889153e-19)
(0.27222923 -0.0003323472 7.4048065e-19)
(0.26686787 -0.00030465719 5.1930653e-19)
(0.25658579 -0.00022656125 5.3427098e-19)
(0.2408456 -0.00012799525 4.7780938e-19)
(0.21888719 -5.5367364e-05 2.2811382e-19)
(0.18265925 -9.7115785e-06 2.3980671e-19)
(0.27708455 -2.5663344e-05 6.5667773e-18)
(0.27708548 -6.4635631e-05 4.2994672e-18)
(0.27708444 -0.0001029304 4.5639632e-18)
(0.27707295 -0.00014336686 3.3920539e-18)
(0.27703318 -0.00018303314 2.0250753e-18)
(0.27692935 -0.00022186743 2.3736034e-18)
(0.2766898 -0.00025879623 2.1186386e-18)
(0.27616569 -0.00029191777 1.570261e-18)
(0.27501711 -0.00031711916 1.0141898e-18)
(0.27240981 -0.00032413774 3.0988645e-19)
(0.26665728 -0.00029141517 6.6392298e-19)
(0.256058 -0.00021166603 8.1314676e-19)
(0.24029748 -0.00011813047 1.0223863e-18)
(0.21849214 -5.070764e-05 5.5114495e-19)
(0.18244204 -8.9025319e-06 4.2053368e-19)
(0.27769504 -2.5479044e-05 5.7064655e-19)
(0.27769529 -6.4159806e-05 4.6116462e-18)
(0.27769247 -0.00010216064 2.7418619e-18)
(0.27767729 -0.00014226521 2.0703076e-18)
(0.27763035 -0.0001815595 2.9040985e-18)
(0.27751275 -0.00021994503 1.5239568e-18)
(0.27724666 -0.00025627339 1.2827702e-18)
(0.27666938 -0.00028847797 9.5288788e-19)
(0.275406 -0.00031203634 8.0287665e-19)
(0.27255164 -0.0003155742 2.6281391e-19)
(0.26641246 -0.00027805925 2.4368659e-19)
(0.25553894 -0.0001975371 3.6185816e-19)
(0.23978254 -0.00010914112 5.2967625e-19)
(0.21812621 -4.6517859e-05 4.3382418e-19)
(0.18224308 -8.1488535e-06 2.9283467e-19)
(0.27830111 -2.5301005e-05 8.516072e-19)
(0.27830062 -6.3700269e-05 5.0216496e-18)
(0.27829586 -0.0001014162 3.3572626e-18)
(0.2782767 -0.00014119716 2.6452497e-18)
(0.278222 -0.00018012493 2.1268762e-18)
(0.27808956 -0.00021806116 1.6615052e-18)
(0.2777948 -0.00025377436 1.3161269e-18)
(0.27715962 -0.0002850166 9.8994453e-19)
(0.27577079 -0.00030679609 8.4202248e-19)
(0.27265429 -0.00030664248 4.8504175e-19)
(0.26613848 -0.00026467813 2.8054031e-19)
(0.2550323 -0.00018420368 2.6314776e-19)
(0.23929925 -0.00010092916 3.3384847e-19)
(0.21778713 -4.2725643e-05 4.0599881e-19)
(0.18206056 -7.4481422e-06 3.4002281e-19)
(0.27890291 -2.5128516e-05 3.4591627e-18)
(0.27890162 -6.3255127e-05 1.9167496e-18)
(0.27889474 -0.00010069401 1.7699846e-18)
(0.27887126 -0.00014015826 2.8110226e-18)
(0.27880821 -0.00017872332 2.4091369e-18)
(0.27865976 -0.00021620724 1.5890234e-18)
(0.27833397 -0.00025128651 1.2291217e-18)
(0.27763569 -0.00028151345 1.108288e-18)
(0.27611001 -0.00030136188 8.9996886e-19)
(0.2727179 -0.00029734386 9.2132073e-19)
(0.26584062 -0.00025136317 4.474518e-19)
(0.25454084 -0.00017167439 4.5099117e-19)
(0.23884602 -9.3403158e-05 2.2807295e-19)
(0.21747286 -3.9273086e-05 2.8807621e-19)
(0.18189296 -6.7970327e-06 2.9394038e-19)
(0.27950056 -2.4960972e-05 1.597862e-18)
(0.2794984 -6.2822774e-05 4.6772706e-18)
(0.27948922 -9.9991432e-05 2.6690373e-18)
(0.27946108 -0.00013914466 1.5685871e-18)
(0.279389 -0.00017734922 2.3365396e-18)
(0.27922329 -0.00021437542 6.7937704e-19)
(0.27886389 -0.00024879793 5.5829469e-19)
(0.27809674 -0.00027794828 3.9186405e-19)
(0.27642222 -0.00029569921 5.0068076e-19)
(0.27274323 -0.00028769474 7.053938e-19)
(0.2655241 -0.00023820406 3.2171554e-19)
(0.25406651 -0.00015993912 2.367336e-19)
(0.23842119 -8.6481051e-05 -4.5704788e-20)
(0.21718151 -3.6113611e-05 1.2219027e-19)
(0.18173897 -6.1914732e-06 1.0112899e-19)
(0.28009418 -2.4797856e-05 1.4310128e-18)
(0.28009107 -6.2401834e-05 4.4850638e-18)
(0.28007941 -9.9306213e-05 3.666824e-18)
(0.28004623 -0.00013815299 1.382074e-18)
(0.27996442 -0.00017599777 1.9803137e-18)
(0.27978006 -0.00021255838 8.6779995e-19)
(0.2793842 -0.00024629715 4.7068883e-19)
(0.27854186 -0.00027430051 1.5141607e-19)
(0.27670605 -0.00028977675 4.3630623e-19)
(0.27273166 -0.0002777256 7.2008981e-19)
(0.26519392 -0.00022528491 3.2108592e-19)
(0.25361059 -0.00014897206 1.5756471e-19)
(0.23802316 -8.009123e-05 9.0188731e-20)
(0.21691137 -3.3209338e-05 1.7414189e-19)
(0.18159747 -5.6270977e-06 1.3226036e-19)
(0.28068388 -2.4638722e-05 1.3870582e-18)
(0.28067974 -6.1991114e-05 3.6600132e-18)
(0.28066539 -9.863637e-05 3.1556139e-18)
(0.28062676 -0.00013718022 1.4813983e-18)
(0.28053445 -0.00017466448 1.8585386e-18)
(0.28032993 -0.00021074911 8.7669826e-19)
(0.27989449 -0.00024377295 3.266772e-19)
(0.27897002 -0.0002705489 2.8050058e-19)
(0.27696025 -0.00028356785 2.4527844e-19)
(0.27268518 -0.00026747915 4.7361082e-19)
(0.26485469 -0.00021268092 3.0424616e-19)
(0.25317379 -0.00013873548 1.2154426e-19)
(0.23765034 -7.4172515e-05 1.9288073e-19)
(0.2166609 -3.0529029e-05 6.0387001e-21)
(0.18146749 -5.0995649e-06 1.4247283e-19)
(0.28126974 -2.4483173e-05 1.2201878e-18)
(0.28126449 -6.1589566e-05 5.0974306e-18)
(0.28124722 -9.7980135e-05 3.2707452e-18)
(0.28120271 -0.00013622364 3.1307477e-19)
(0.28109907 -0.00017334514 8.5388935e-19)
(0.28087275 -0.00020894082 5.7603719e-20)
(0.28039427 -0.00024121406 -1.3437917e-19)
(0.27938014 -0.00026667151 -2.8808659e-20)
(0.27718382 -0.00027705191 -1.3244916e-19)
(0.27260633 -0.00025700811 -1.5933175e-19)
(0.26451052 -0.00020045586 -2.6089128e-19)
(0.25275643 -0.00012918378 -1.9238397e-19)
(0.23730122 -6.8673275e-05 -2.0172747e-19)
(0.21642866 -2.8046559e-05 -2.4803834e-19)
(0.18134818 -4.6048124e-06 -3.4366263e-20)
(0.28185185 -2.4330856e-05 2.7123199e-18)
(0.28184539 -6.119625e-05 3.7309307e-18)
(0.28182498 -9.7335907e-05 3.110547e-18)
(0.28177412 -0.00013528067 8.5641312e-19)
(0.28165823 -0.00017203573 1.0848619e-18)
(0.2814083 -0.00020712676 4.9339838e-19)
(0.28088299 -0.00023860899 2.6374559e-19)
(0.27977106 -0.0002626457 -1.3453733e-20)
(0.27737601 -0.00027021574 6.524818e-20)
(0.27249806 -0.00024637257 -6.9340828e-20)
(0.26416497 -0.0001886604 -3.2848734e-19)
(0.2523585 -0.00012026722 -1.4567223e-19)
(0.23697438 -6.3550127e-05 -2.111972e-19)
(0.21621337 -2.5739816e-05 -7.2367002e-20)
(0.18123881 -4.1392045e-06 -4.8072473e-20)
(0.28243029 -2.4181448e-05 5.7137928e-18)
(0.28242252 -6.0810308e-05 4.0208694e-18)
(0.28239871 -9.6702198e-05 3.3486852e-18)
(0.28234099 -0.00013434892 2.8158134e-18)
(0.28221186 -0.00017073227 1.9970421e-18)
(0.28193636 -0.00020530013 1.3950942e-18)
(0.28136003 -0.00023594579 8.726062e-19)
(0.2801416 -0.00025844846 3.6943282e-19)
(0.27753642 -0.00026305461 3.6774383e-19)
(0.27236366 -0.00023563725 -3.0909406e-20)
(0.26382105 -0.00017733136 3.3488322e-19)
(0.25197976 -0.0001119352 2.2903797e-19)
(0.23666845 -5.8766492e-05 1.8349096e-20)
(0.21601387 -2.3589921e-05 3.8998766e-20)
(0.1811387 -3.6995989e-06 8.6231459e-20)
(0.28300512 -2.4034648e-05 3.2997561e-18)
(0.28299594 -6.0430938e-05 3.1909453e-18)
(0.28296845 -9.6077597e-05 2.9167486e-18)
(0.28290332 -0.00013342601 3.0709788e-18)
(0.28275987 -0.00016943078 2.1418875e-18)
(0.28245663 -0.00020345398 1.1901081e-18)
(0.28182471 -0.00023321186 6.8963488e-19)
(0.28049056 -0.0002540569 4.4674879e-19)
(0.27766504 -0.00025557285 4.2281831e-19)
(0.27220658 -0.0002248688 4.0444185e-19)
(0.26348123 -0.00016649191 3.2561279e-19)
(0.25161982 -0.00010413863 7.6559161e-20)
(0.23638216 -5.4291234e-05 3.7364885e-20)
(0.21582908 -2.1580662e-05 6.7366253e-20)
(0.18104728 -3.2833435e-06 4.8339829e-20)
(0.2835764 -2.3890167e-05 1.3951807e-18)
(0.28356569 -6.0057379e-05 3.000937e-18)
(0.28353424 -9.5460738e-05 2.913624e-18)
(0.2834611 -0.00013250962 2.7409426e-18)
(0.28330215 -0.00016812719 1.8706707e-18)
(0.28296879 -0.00020158114 1.2992073e-18)