/*--------------------------------*- C++ -*----------------------------------*\
| =========                 |                                                 |
| \\      /  F ield         | OpenFOAM: The Open Source CFD Toolbox           |
|  \\    /   O peration     | Version:  2506                                  |
|   \\  /    A nd           | Website:  www.openfoam.com                      |
|    \\/     M anipulation  |                                                 |
\*---------------------------------------------------------------------------*/
FoamFile
{
    version     2.0;
    format      ascii;
    arch        "LSB;label=32;scalar=64";
    class       volScalarField;
    location    "16000/water";
    object      alphat;
}
// * * * * * * * * * * * * * * * * * * * * * * * * * * * * * * * * * * * * * //

dimensions      [1 -1 -1 0 0 0 0];

internalField   nonuniform List<scalar> 
6000
(
0.041292847
0.041292824
0.041292831
0.041292856
0.041292889
0.041292932
0.041292983
0.041293016
0.041292808
0.041290571
0.041271537
0.041111294
0.0397723
0.030564074
0.013464793
0.040788543
0.040788537
0.040788576
0.040788654
0.040788758
0.040788888
0.04078902
0.040788972
0.040787494
0.040776037
0.040696382
0.040161217
0.036863805
0.023766469
0.015141611
0.04033569
0.040335696
0.040335761
0.040335884
0.040336044
0.040336229
0.04033633
0.040335685
0.040330323
0.040296649
0.040097616
0.038983223
0.033614213
0.0194951
0.016360294
0.039926215
0.039926219
0.039926301
0.039926459
0.03992666
0.039926848
0.039926701
0.039924457
0.039910659
0.039835636
0.039448738
0.037597438
0.030384627
0.016783058
0.017196555
0.039553796
0.039553808
0.039553906
0.039554093
0.039554312
0.039554413
0.039553622
0.0395481
0.039519187
0.039379112
0.038737841
0.036066498
0.027427863
0.015063192
0.01773179
0.039213273
0.039213296
0.039213408
0.039213613
0.039213809
0.039213657
0.039211571
0.039200298
0.039147643
0.038916647
0.037965398
0.034462847
0.024852826
0.013984463
0.018040007
0.038900366
0.038900399
0.038900521
0.038900723
0.038900826
0.038900159
0.038895819
0.03887551
0.038788999
0.038441492
0.037140256
0.032849727
0.022675913
0.013336844
0.018183117
0.038611532
0.038611573
0.038611697
0.038611866
0.038611765
0.038610199
0.038602307
0.038568928
0.038437606
0.037950377
0.036275872
0.031274836
0.020870828
0.012994967
0.018210197
0.038343817
0.038343862
0.038343975
0.038344065
0.038343601
0.038340605
0.038327517
0.03827644
0.038089201
0.037442856
0.03538704
0.029770034
0.019396999
0.012882914
0.018158676
0.038094736
0.03809478
0.038094862
0.038094803
0.038093753
0.038088644
0.038068396
0.037994592
0.037740813
0.036920505
0.03448763
0.028354169
0.018213448
0.012953916
0.018056304
0.037862183
0.037862216
0.037862238
0.037861935
0.037860009
0.037851941
0.037822294
0.037720559
0.037390607
0.036386134
0.033589398
0.02703684
0.017284481
0.013178532
0.017923231
0.03764436
0.037644371
0.037644291
0.037643618
0.037640447
0.037628426
0.037586933
0.037452106
0.037037684
0.035843147
0.032701562
0.025821837
0.016581272
0.013537499
0.017773886
0.037439726
0.037439699
0.03743946
0.037438254
0.037433393
0.037416287
0.037360374
0.037187532
0.036681868
0.035295042
0.031830871
0.02470985
0.016081614
0.014017191
0.017618497
0.037246949
0.037246861
0.037246392
0.037244452
0.037237378
0.037213943
0.037140989
0.036925609
0.0363235
0.034745073
0.030981931
0.023700436
0.015768976
0.014606606
0.017464261
0.037064871
0.037064693
0.037063903
0.037060987
0.037051109
0.037020016
0.036927437
0.036665512
0.035963258
0.03419604
0.030157673
0.022793377
0.015631332
0.015295285
0.017316197
0.03689248
0.036892177
0.036890955
0.036886782
0.036873442
0.036833316
0.036718634
0.03640675
0.035602004
0.033650187
0.029359858
0.021989539
0.015659917
0.016071914
0.01717775
0.036728885
0.036728414
0.036726628
0.036720878
0.03670337
0.036652818
0.036513731
0.036149096
0.035240656
0.033109157
0.028589603
0.021291346
0.015847992
0.016923492
0.017051196
0.036573301
0.03657261
0.036570106
0.036562424
0.036540005
0.036477653
0.03631208
0.035892529
0.034880099
0.032574024
0.027847913
0.02070292
0.016189617
0.01783505
0.016937916
0.036425028
0.036424056
0.036420663
0.036410663
0.036382564
0.036307092
0.036113215
0.03563717
0.034521109
0.032045349
0.027136212
0.020229919
0.016678486
0.018789895
0.016838558
0.036283441
0.03628212
0.036277645
0.036264917
0.036230367
0.036140535
0.03591682
0.035383242
0.034164308
0.031523285
0.026456862
0.019879123
0.017306891
0.019770317
0.016753165
0.036147982
0.036146234
0.036140468
0.036124584
0.036082821
0.035977497
0.035722708
0.035131018
0.033810124
0.031007717
0.025813646
0.019657797
0.018064912
0.0207586
0.016681265
0.036018143
0.036015885
0.036008605
0.035989127
0.035939416
0.035817597
0.035530799
0.034880794
0.033458783
0.030498445
0.025212142
0.019572905
0.018939949
0.021738147
0.016621966
0.03589347
0.03589061
0.035881581
0.035858069
0.035799718
0.035660549
0.035341095
0.034632853
0.033110301
0.029995409
0.024659951
0.019630248
0.019916664
0.02269449
0.016574063
0.035773545
0.035769987
0.035758968
0.035730991
0.035663366
0.035506152
0.035153669
0.034387441
0.032764498
0.029498968
0.024166686
0.019833637
0.020977366
0.023616003
0.016536152
0.035657992
0.035653635
0.035640383
0.035607524
0.035530063
0.035354279
0.034968643
0.03414475
0.03242103
0.029010211
0.023743688
0.020184173
0.022102784
0.024494228
0.016506745
0.035546464
0.035541207
0.035525479
0.035487349
0.035399574
0.035204869
0.034786172
0.033904896
0.032079439
0.028531301
0.023403466
0.020679734
0.023273104
0.025323802
0.016484372
0.035438647
0.035432386
0.035413948
0.035370193
0.035271718
0.035057919
0.034606436
0.03366791
0.03173923
0.028065808
0.023158914
0.021314706
0.0244691
0.026102089
0.016467662
0.035334251
0.035326887
0.035305516
0.035255823
0.03514637
0.034913479
0.03442962
0.033433727
0.031399978
0.02761899
0.023022388
0.022080016
0.02567317
0.026828633
0.016455398
0.035233012
0.035224448
0.035199939
0.03514405
0.035023453
0.034771643
0.034255909
0.033202186
0.031061475
0.027197981
0.02300477
0.022963453
0.026870128
0.027504567
0.016446544
0.035134691
0.035124836
0.035097009
0.035034724
0.034902936
0.03463254
0.03408547
0.032973033
0.030723902
0.0268118
0.023114633
0.023950249
0.02804767
0.028132079
0.016440248
0.035039067
0.03502784
0.034996542
0.034927732
0.034784832
0.034496333
0.033918446
0.032745938
0.030388046
0.026471167
0.023357597
0.025023883
0.02919649
0.028713983
0.016435834
0.034945943
0.034933275
0.034898386
0.034822996
0.034669194
0.034363211
0.033754944
0.032520522
0.030055535
0.026188099
0.023735915
0.026166983
0.030310099
0.029253407
0.016432778
0.034855141
0.034840974
0.034802418
0.034720475
0.034556112
0.034233382
0.033595029
0.032296402
0.029729078
0.025975302
0.024248334
0.02736225
0.031384439
0.029753594
0.016430685
0.034766502
0.034750797
0.03470854
0.034620164
0.034445715
0.034107066
0.033438713
0.032073259
0.029412693
0.025845434
0.02489019
0.028593298
0.032417399
0.030217765
0.016429265
0.034679887
0.034662624
0.034616684
0.034522088
0.034338162
0.033984492
0.033285952
0.031850929
0.029111867
0.025810314
0.025653731
0.029845306
0.033408314
0.030649046
0.016428312
0.034595176
0.034576356
0.034526808
0.034426308
0.034233647
0.033865888
0.033136649
0.03162952
0.028833633
0.025880169
0.026528619
0.031105458
0.034357529
0.031050409
0.016427682
0.034512269
0.034491917
0.034438897
0.034332917
0.034132389
0.033751478
0.032990657
0.031409556
0.028586515
0.02606301
0.027502554
0.032363144
0.035266042
0.031424648
0.01642728
0.034431083
0.034409252
0.034352965
0.034242042
0.034034637
0.033641469
0.032847794
0.031192142
0.028380315
0.026364175
0.028561979
0.033609948
0.036135248
0.031774346
0.016427047
0.034351558
0.034328331
0.034269052
0.034153841
0.033940664
0.03353605
0.032707869
0.03097915
0.028225759
0.02678609
0.029692788
0.034839473
0.03696677
0.032101874
0.01642695
0.034273652
0.034249145
0.03418723
0.034068505
0.03385076
0.033435383
0.03257072
0.030773393
0.028133997
0.027328221
0.030880993
0.036047067
0.037762344
0.032409381
0.016426974
0.034197344
0.03417171
0.034107598
0.033986257
0.033765237
0.033339598
0.032436275
0.030578781
0.028116032
0.027987224
0.032113284
0.037229503
0.038523755
0.032698799
0.016427117
0.034122637
0.034096065
0.034030285
0.033907355
0.033684417
0.033248788
0.032304627
0.030400435
0.028182107
0.02875725
0.03337746
0.038384662
0.039252794
0.032971855
0.016427382
0.034049553
0.034022276
0.033955452
0.033832084
0.033608631
0.033163012
0.03217613
0.030244714
0.02834114
0.029630359
0.034662707
0.039511265
0.039951228
0.033230086
0.016427779
0.03397814
0.033950437
0.033883292
0.033760766
0.033538214
0.0330823
0.032051523
0.030119154
0.028600248
0.030597022
0.035959727
0.040608641
0.040620777
0.033474856
0.016428318
0.033908471
0.033880668
0.033814033
0.033693749
0.033473498
0.033006661
0.031932061
0.030032291
0.028964396
0.031646652
0.037260744
0.041676558
0.0412631
0.033707373
0.01642901
0.033840644
0.033813121
0.033747936
0.033631414
0.033414804
0.032936115
0.031819661
0.029993369
0.029436211
0.03276813
0.038559405
0.042715108
0.041879779
0.033928705
0.016429865
0.033774787
0.03374798
0.033685299
0.033574167
0.033362441
0.032870717
0.031717044
0.030011962
0.030015934
0.033950284
0.039850629
0.043724612
0.042472314
0.034139802
0.016430892
0.033711057
0.03368546
0.033626458
0.03352244
0.033316699
0.032810615
0.031627853
0.03009752
0.030701524
0.035182301
0.041130415
0.044705564
0.043042114
0.034341502
0.016432097
0.033649643
0.033625814
0.033571787
0.033476689
0.033277844
0.032756113
0.031556734
0.030258904
0.031488878
0.036454044
0.042395663
0.045658587
0.043590498
0.034534553
0.016433487
0.03359077
0.033569333
0.033521698
0.033437387
0.03324612
0.032707756
0.031509357
0.030503939
0.032372144
0.037756266
0.043643995
0.046584395
0.044118699
0.034719618
0.016435064
0.033534699
0.033516348
0.033476647
0.033405019
0.033221753
0.032666433
0.031492359
0.030839028
0.033344088
0.039080735
0.044873611
0.04748377
0.044627864
0.034897289
0.016436831
0.033481731
0.033467235
0.033437127
0.033380083
0.033204961
0.032633491
0.031513197
0.031268866
0.034396492
0.040420264
0.046083175
0.048357533
0.045119059
0.035068096
0.016438788
0.033432211
0.033422413
0.033403675
0.033363076
0.033195977
0.032610856
0.031579923
0.031796265
0.035520555
0.041768689
0.047271717
0.04920653
0.045593277
0.035232514
0.016440933
0.033386531
0.033382352
0.033376864
0.033354497
0.033195078
0.03260115
0.031700872
0.032422091
0.036707256
0.043120788
0.048438563
0.050031614
0.046051438
0.035390968
0.016443266
0.033345134
0.033347573
0.033357309
0.033354836
0.033202628
0.032607793
0.031884307
0.033145318
0.037947675
0.044472181
0.049583282
0.050833633
0.046494397
0.035543844
0.016445782
0.033308518
0.033318652
0.033345661
0.033364571
0.033219143
0.032635061
0.032138042
0.033963178
0.039233252
0.045819222
0.050705639
0.051613421
0.046922952
0.035691489
0.016448478
0.033277237
0.03329622
0.033342601
0.033384174
0.033245363
0.03268811
0.03246907
0.034871382
0.040555967
0.047158892
0.05180556
0.052371795
0.04733784
0.035834219
0.016451351
0.033251914
0.033280969
0.033348845
0.033414106
0.033282345
0.032772917
0.032883247
0.035864399
0.041908472
0.048488701
0.052883101
0.053109547
0.047739749
0.03597232
0.016454394
0.033233235
0.033273652
0.033365128
0.033454835
0.033331563
0.032896165
0.033385033
0.036935759
0.043284141
0.049806605
0.05393842
0.053827443
0.048129319
0.036106053
0.016457603
0.033221962
0.033275082
0.033392211
0.033506851
0.033395016
0.03306505
0.033977334
0.038078364
0.044677086
0.051110935
0.054971757
0.054526219
0.048507144
0.036235658
0.016460974
0.033218934
0.033286139
0.033430864
0.033570696
0.033475331
0.033287021
0.034661421
0.039284778
0.046082131
0.052400342
0.055983418
0.055206587
0.048873783
0.036361356
0.016464499
0.033225073
0.033307763
0.033481871
0.033647008
0.033575845
0.033569483
0.035436951
0.040547492
0.047494762
0.053673745
0.056973755
0.055869226
0.049229756
0.036483354
0.016468174
0.033241386
0.033340956
0.033546021
0.033736578
0.03370066
0.033919477
0.036302066
0.041859137
0.048911068
0.054930292
0.05794315
0.056514768
0.049575443
0.036601083
0.01647199
0.033268972
0.03338678
0.033624112
0.03384042
0.033854651
0.034343362
0.037253557
0.043212657
0.050327672
0.056169323
0.058892008
0.057143807
0.049911242
0.036714879
0.016475942
0.033309024
0.033446355
0.033716953
0.03395986
0.03404342
0.034846538
0.038287076
0.044601424
0.051741667
0.05739034
0.059820746
0.057756912
0.050237556
0.036825045
0.016480019
0.03336283
0.033520853
0.033825376
0.034096628
0.034273182
0.035433218
0.039397375
0.046019314
0.053150559
0.058592979
0.060729792
0.058354635
0.050554797
0.036931851
0.016484214
0.033431775
0.033611491
0.033950257
0.034252954
0.034550591
0.036106274
0.040578558
0.047460739
0.054552213
0.059776993
0.061619575
0.058937454
0.050862923
0.037035581
0.016488518
0.033517344
0.033719533
0.034092549
0.034431665
0.034882516
0.036867154
0.041824323
0.048920651
0.055944807
0.060942228
0.062490517
0.059505811
0.051162151
0.037136396
0.016492923
0.033621114
0.033846282
0.034253324
0.03463625
0.035275767
0.037715885
0.04312818
0.050394527
0.057326793
0.062088607
0.063343036
0.060060163
0.051452981
0.037234384
0.016497425
0.033744758
0.03399308
0.034433835
0.034870907
0.035736814
0.038651139
0.04448364
0.051878338
0.05869686
0.063216115
0.064177553
0.060600974
0.051735851
0.037329653
0.016502019
0.033890035
0.034161309
0.034635592
0.035140534
0.036271506
0.039670361
0.045884371
0.053368507
0.0600539
0.064324795
0.064994472
0.061128573
0.052011163
0.037422331
0.0165067
0.034058787
0.034352406
0.034860441
0.035450673
0.036884818
0.040769941
0.047324309
0.054861871
0.06139699
0.065414727
0.065794143
0.061642947
0.052279305
0.037512562
0.016511467
0.034252938
0.034567873
0.035110665
0.035807393
0.037580648
0.041945411
0.048797738
0.05635564
0.062725357
0.066486018
0.066576929
0.062144667
0.052540483
0.037600453
0.016516317
0.034474482
0.034809315
0.035389066
0.036217116
0.038361674
0.043191656
0.050299339
0.057847356
0.064038357
0.067538805
0.067343214
0.062634244
0.052794917
0.037686088
0.016521247
0.03472549
0.035078476
0.035699052
0.036686392
0.039229276
0.044503118
0.051824205
0.059334859
0.065335462
0.068573251
0.068093395
0.063112137
0.053042836
0.037769546
0.016526253
0.035008112
0.035377301
0.036044685
0.037221648
0.040183536
0.045873994
0.053367852
0.060816258
0.066616246
0.069589502
0.06882737
0.063578808
0.05328449
0.037850923
0.016531331
0.03532459
0.03570801
0.036430698
0.037828913
0.041223289
0.047298394
0.054926199
0.062289892
0.067880352
0.070587709
0.069545619
0.064034565
0.053520087
0.037930306
0.016536479
0.035677287
0.036073176
0.036862465
0.038513566
0.042346236
0.04877049
0.056495551
0.063754307
0.06912749
0.071568062
0.070248614
0.064479709
0.053749815
0.038007771
0.016541693
0.036068723
0.036475823
0.037345906
0.039280102
0.043549092
0.050284613
0.058072572
0.065208227
0.070357435
0.072530786
0.070936788
0.064914535
0.05397385
0.03808338
0.016546969
0.03650163
0.036919506
0.037887341
0.040131953
0.04482776
0.051835341
0.059654261
0.066650549
0.071570001
0.073475729
0.071610524
0.065339341
0.054192383
0.038157196
0.016552305
0.036979025
0.037408386
0.038493288
0.041071365
0.046177518
0.053417548
0.06123792
0.068080295
0.072765016
0.074403189
0.072270172
0.06575439
0.054405591
0.038229281
0.016557696
0.037504286
0.037947271
0.039170219
0.042099342
0.0475932
0.05502643
0.062821119
0.069496598
0.073942367
0.075313494
0.072916048
0.066159929
0.054613631
0.038299688
0.01656314
0.038081241
0.038541608
0.039924301
0.043215648
0.049069368
0.056657521
0.064401681
0.070898704
0.075101912
0.076206925
0.07354845
0.0665562
0.054816652
0.038368466
0.016568632
0.038714236
0.03919743
0.040761125
0.044418874
0.050600459
0.058306696
0.065977657
0.072285947
0.07624344
0.077083727
0.074167654
0.066943446
0.055014794
0.038435662
0.01657417
0.03940819
0.039921226
0.041685467
0.045706548
0.052180915
0.059970152
0.06754728
0.073657703
0.077366976
0.077944205
0.074773922
0.067321889
0.055208189
0.038501318
0.016579751
0.040168599
0.040719753
0.042701086
0.047075279
0.053805275
0.061644391
0.069108948
0.075013441
0.078472606
0.078788616
0.075367508
0.067691735
0.055396963
0.038565473
0.01658537
0.041001481
0.041599794
0.043810571
0.048520921
0.05546826
0.063326225
0.07066126
0.076352561
0.07956026
0.079617161
0.075948661
0.068053183
0.055581228
0.03862816
0.016591025
0.041913254
0.042567873
0.045015258
0.050038745
0.057164817
0.065012718
0.072202872
0.077674598
0.080630131
0.080430045
0.076517618
0.068406417
0.055761093
0.038689414
0.016596712
0.042910528
0.043629946
0.046315205
0.051623602
0.058890141
0.066701161
0.073732564
0.078979241
0.08168235
0.081227468
0.077074597
0.068751612
0.055936658
0.038749263
0.016602429
0.043999829
0.0447911
0.047709231
0.053270085
0.060639724
0.068389121
0.075249198
0.08026602
0.082716968
0.082009627
0.077619802
0.06908893
0.056108013
0.038807734
0.016608172
0.045187265
0.046055287
0.049194999
0.054972651
0.062409317
0.070074281
0.076751675
0.08153484
0.083734044
0.082776705
0.078153427
0.069418521
0.056275245
0.03886485
0.016613937
0.046478152
0.047425094
0.050769138
0.056725728
0.06419493
0.071754496
0.078239055
0.082785575
0.084733647
0.083528868
0.078675651
0.069740523
0.05643843
0.038920634
0.016619723
0.04787665
0.048901586
0.052427392
0.058523822
0.065992882
0.073427798
0.079710314
0.084018002
0.085715839
0.084266272
0.07918664
0.070055065
0.05659764
0.038975103
0.016625525
0.049385419
0.050484216
0.054164761
0.060361533
0.067799628
0.075092229
0.081164967
0.08523194
0.086680671
0.084989059
0.079686544
0.070362265
0.056752938
0.039028274
0.016631341
0.051005358
0.052170813
0.055975671
0.062233664
0.069611908
0.07674584
0.082602388
0.086427212
0.087628184
0.085697353
0.0801755
0.070662226
0.056904382
0.039080161
0.016637167
0.052735421
0.053957629
0.057854082
0.064135119
0.071426498
0.078387239
0.08402197
0.087603645
0.088558405
0.086391265
0.080653629
0.070955046
0.057052024
0.039130776
0.016643001
0.054572554
0.055839461
0.059793648
0.066061017
0.073240168
0.080015134
0.085423136
0.088761057
0.089471347
0.087070888
0.08112104
0.071240806
0.057195907
0.039180127
0.016648839
0.056511737
0.057809784
0.061787716
0.068006437
0.075050346
0.081628266
0.086805329
0.08989926
0.090367006
0.087736295
0.081577823
0.071519581
0.05733607
0.039228222
0.016654679
0.058546138
0.059860944
0.06382942
0.069966589
0.076854663
0.083225438
0.088168004
0.091018055
0.091245359
0.088387544
0.082024055
0.071791432
0.057472546
0.039275065
0.016660517
0.060667294
0.06198423
0.06591162
0.07193731
0.078650863
0.084805503
0.08951062
0.092117231
0.092106365
0.089024672
0.082459798
0.07205641
0.057605359
0.039320659
0.01666635
0.062865314
0.064170248
0.068027486
0.073914592
0.080436797
0.086367354
0.090832641
0.093196559
0.092949961
0.089647696
0.082885094
0.072314554
0.057734529
0.039365003
0.016672175
0.065129346
0.066409203
0.070170237
0.075894565
0.082210407
0.087909919
0.092133528
0.094255794
0.093776063
0.090256615
0.083299974
0.072565892
0.057860069
0.039408095
0.016677989
0.067447953
0.068691089
0.07233318
0.077873487
0.083969711
0.089432153
0.093412737
0.095294671
0.094584565
0.090851403
0.083704447
0.072810441
0.057981985
0.039449931
0.016683788
0.069809474
0.071005883
0.074509743
0.079847732
0.085712795
0.090933034
0.094669719
0.096312909
0.095375336
0.091432018
0.084098511
0.073048206
0.058100276
0.039490502
0.01668957
0.072202331
0.073343731
0.076693518
0.081813785
0.087437805
0.092411559
0.095903919
0.097310206
0.096148227
0.091998393
0.084482142
0.073279181
0.058214936
0.0395298
0.01669533
0.074615291
0.0756951
0.078878294
0.083768232
0.089142937
0.093866741
0.097114777
0.098286243
0.096903063
0.092550444
0.084855303
0.073503346
0.058325951
0.039567812
0.016701064
0.077037675
0.078050908
0.081058098
0.08570777
0.090826437
0.09529761
0.098301728
0.099240684
0.097639652
0.093088066
0.08521794
0.073720674
0.058433302
0.039604524
0.016706771
0.079459506
0.080402624
0.083227231
0.087629203
0.092486599
0.096703214
0.099464205
0.10017318
0.098357782
0.093611135
0.085569983
0.073931123
0.058536962
0.039639919
0.016712444
0.081871612
0.082742342
0.085380304
0.089529458
0.094121764
0.09808262
0.10060164
0.10108338
0.099057226
0.09411951
0.085911347
0.074134642
0.0586369
0.039673977
0.016718081
0.084265683
0.085062825
0.087512265
0.09140559
0.095730328
0.099434917
0.10171348
0.10197091
0.099737743
0.094613037
0.086241936
0.07433117
0.058733076
0.039706677
0.016723677
0.086634286
0.087357531
0.089618427
0.093254799
0.097310741
0.10075922
0.10279916
0.1028354
0.10039908
0.095091547
0.086561639
0.074520637
0.058825447
0.039737994
0.016729228
0.088970858
0.089620615
0.091694481
0.095074443
0.098861521
0.10205468
0.10385816
0.10367649
0.10104099
0.095554864
0.086870336
0.074702965
0.058913965
0.039767905
0.016734728
0.091269676
0.091846915
0.093736512
0.096862047
0.10038126
0.10332047
0.10488995
0.10449383
0.10166321
0.096002804
0.087167901
0.074878068
0.058998575
0.03979638
0.016740174
0.09352581
0.094031931
0.095741
0.09861532
0.10186861
0.10455583
0.10589405
0.10528707
0.10226548
0.09643518
0.0874542
0.075045856
0.059079221
0.039823391
0.016745561
0.095735066
0.096171788
0.097704821
0.10033216
0.10332235
0.10576004
0.10687
0.10605588
0.10284756
0.096851807
0.087729097
0.075206234
0.059155843
0.039848908
0.016750882
0.09789393
0.098263196
0.099625234
0.10201067
0.10474132
0.10693241
0.10781737
0.10679996
0.10340923
0.097252505
0.087992456
0.075359106
0.059228382
0.039872901
0.016756134
0.099999502
0.1003034
0.10149987
0.10364913
0.10612448
0.10807234
0.10873578
0.10751904
0.10395026
0.097637101
0.088244146
0.075504377
0.059296774
0.039895338
0.01676131
0.10204944
0.10229016
0.10332673
0.10524607
0.10747088
0.10917928
0.10962489
0.10821288
0.10447046
0.098005438
0.088484038
0.075641953
0.059360959
0.039916191
0.016766405
0.10404189
0.10422166
0.10510413
0.10680017
0.10877971
0.11025276
0.11048442
0.10888128
0.10496967
0.098357373
0.088712018
0.075771745
0.05942088
0.039935429
0.016771414
0.10597545
0.1060965
0.10683072
0.10831035
0.11005024
0.11129236
0.11131413
0.10952406
0.10544775
0.098692785
0.088927979
0.075893672
0.059476479
0.039953024
0.01677633
0.1078491
0.10791366
0.10850544
0.10977571
0.11128189
0.11229776
0.11211383
0.11014112
0.1059046
0.099011576
0.089131833
0.07600766
0.059527708
0.039968952
0.016781148
0.10966217
0.10967241
0.11012748
0.11119553
0.11247416
0.11326869
0.1128834
0.11073237
0.10634015
0.099313676
0.089323509
0.076113647
0.059574521
0.039983189
0.016785862
0.11141427
0.11137233
0.11169631
0.11256928
0.1136267
0.11420497
0.11362277
0.11129779
0.10675437
0.099599041
0.089502956
0.076211586
0.059616883
0.039995716
0.016790467
0.1131053
0.11301325
0.1132116
0.11389658
0.11473925
0.11510651
0.11433193
0.1118374
0.10714727
0.099867661
0.089670145
0.076301441
0.059654765
0.040006518
0.016794957
0.11473537
0.11459522
0.11467322
0.11517722
0.11581165
0.11597327
0.11501094
0.11235127
0.1075189
0.10011956
0.089825074
0.076383197
0.059688149
0.040015583
0.016799326
0.11630479
0.11611847
0.11608124
0.11641115
0.11684388
0.11680529
0.1156599
0.11283951
0.10786937
0.10035479
0.089967764
0.076456853
0.059717028
0.040022906
0.01680357
0.11781404
0.11758343
0.11743588
0.11759843
0.11783598
0.11760268
0.11627896
0.1133023
0.1081988
0.10057345
0.090098265
0.076522429
0.059741405
0.040028485
0.016807684
0.11926376
0.11899064
0.1187375
0.11873925
0.11878812
0.11836565
0.11686835
0.11373985
0.10850737
0.10077565
0.090216654
0.076579965
0.059761299
0.040032327
0.016811663
0.1206547
0.12034081
0.1199866
0.11983393
0.11970052
0.11909443
0.11742834
0.11415241
0.1087953
0.10096157
0.090323035
0.076629521
0.059776738
0.040034441
0.016815503
0.12198773
0.12163471
0.12118379
0.12088289
0.12057351
0.11978934
0.11795925
0.11454029
0.10906285
0.10113139
0.090417542
0.076671177
0.059787765
0.040034845
0.0168192
0.12326379
0.12287325
0.12232977
0.12188662
0.12140749
0.12045075
0.11846144
0.11490383
0.1093103
0.10128535
0.090500335
0.076705037
0.059794437
0.040033561
0.01682275
0.12448394
0.1240574
0.12342533
0.12284571
0.12220293
0.1210791
0.11893533
0.11524341
0.109538
0.1014237
0.090571604
0.076731223
0.059796824
0.04003062
0.016826152
0.12564927
0.12518819
0.12447135
0.12376084
0.12296037
0.12167486
0.11938138
0.11555946
0.10974629
0.10154675
0.090631561
0.076749877
0.059795009
0.040026056
0.016829401
0.12676093
0.12626673
0.12546875
0.12463273
0.1236804
0.12223856
0.11980008
0.11585244
0.10993559
0.10165479
0.090680447
0.076761163
0.059789086
0.040019912
0.016832497
0.12782013
0.12729415
0.12641853
0.12546218
0.12436366
0.12277078
0.12019195
0.11612282
0.11010632
0.1017482
0.090718524
0.07676526
0.059779166
0.040012233
0.016835438
0.1288281
0.12827164
0.1273217
0.12625003
0.12501085
0.12327212
0.12055757
0.11637112
0.11025891
0.10182733
0.090746077
0.076762368
0.059765366
0.040003072
0.016838222
0.12978612
0.12920043
0.12817936
0.12699715
0.1256227
0.12374324
0.12089753
0.11659789
0.11039386
0.10189258
0.090763411
0.0767527
0.059747818
0.039992487
0.01684085
0.13069547
0.13008174
0.1289926
0.12770448
0.12619999
0.1241848
0.12121244
0.11680368
0.11051166
0.10194437
0.090770849
0.076736488
0.059726662
0.039980538
0.016843322
0.13155745
0.13091684
0.12976255
0.12837297
0.12674352
0.12459752
0.12150294
0.11698909
0.11061282
0.10198312
0.09076873
0.076713972
0.059702047
0.039967292
0.016845637
0.13237339
0.13170699
0.13049036
0.1290036
0.12725411
0.12498211
0.12176969
0.1171547
0.11069788
0.10200929
0.090757407
0.076685407
0.059674131
0.039952817
0.016847798
0.1331446
0.13245349
0.13117719
0.12959736
0.12773262
0.12533933
0.12201337
0.11730113
0.11076737
0.10202334
0.090737246
0.076651058
0.059643076
0.039937185
0.016849806
0.13387241
0.1331576
0.13182421
0.13015527
0.12817992
0.12566994
0.12223466
0.11742901
0.11082185
0.10202574
0.090708622
0.076611197
0.059609052
0.039920469
0.016851662
0.13455813
0.13382063
0.13243261
0.13067836
0.12859688
0.12597471
0.12243427
0.11753898
0.11086188
0.10201696
0.090671918
0.076566104
0.059572233
0.039902746
0.016853369
0.1352031
0.13444383
0.13300357
0.13116766
0.12898442
0.12625444
0.1226129
0.11763166
0.11088804
0.10199749
0.090627523
0.076516062
0.059532795
0.039884093
0.016854929
0.13580861
0.1350285
0.13353825
0.13162422
0.12934341
0.1265099
0.12277127
0.1177077
0.11090089
0.10196783
0.090575831
0.076461359
0.059490918
0.039864587
0.016856347
0.13637596
0.13557589
0.13403784
0.13204908
0.12967478
0.12674191
0.12291009
0.11776776
0.11090102
0.10192845
0.090517238
0.076402286
0.059446781
0.039844305
0.016857624
0.13690645
0.13608726
0.13450351
0.13244327
0.12997943
0.12695126
0.12303007
0.11781247
0.11088898
0.10187986
0.090452141
0.076339135
0.059400566
0.039823326
0.016858765
0.13740134
0.13656385
0.13493641
0.13280782
0.13025826
0.12713875
0.12313193
0.11784248
0.11086536
0.10182254
0.090380934
0.076272194
0.059352452
0.039801726
0.016859774
0.13786189
0.13700689
0.13533768
0.13314378
0.13051218
0.12730517
0.1232164
0.11785844
0.11083072
0.10175699
0.090304011
0.076201752
0.059302617
0.03977958
0.016860655
0.13828934
0.13741759
0.13570848
0.13345216
0.13074209
0.12745133
0.12328416
0.11786097
0.11078563
0.10168367
0.090221763
0.076128096
0.059251238
0.039756962
0.016861412
0.13868493
0.13779715
0.13604991
0.13373397
0.13094889
0.12757801
0.12333594
0.11785071
0.11073064
0.10160308
0.090134576
0.076051508
0.059198488
0.039733946
0.016862049
0.13904985
0.13814674
0.1363631
0.13399021
0.13113345
0.12768598
0.12337242
0.11782829
0.11066631
0.10151569
0.090042829
0.075972265
0.059144536
0.039710601
0.016862572
0.13938529
0.13846753
0.13664912
0.13422188
0.13129666
0.12777604
0.1233943
0.11779431
0.11059318
0.10142195
0.089946897
0.075890639
0.059089547
0.039686996
0.016862984
0.13969241
0.13876065
0.13690905
0.13442995
0.13143938
0.12784894
0.12340226
0.1177494
0.11051179
0.10132232
0.089847144
0.075806896
0.059033684
0.039663195
0.016863291
0.13997236
0.13902722
0.13714395
0.13461539
0.13156247
0.12790544
0.12339697
0.11769414
0.11042266
0.10121726
0.08974393
0.075721295
0.058977101
0.039639262
0.016863497
0.14022625
0.13926833
0.13735486
0.13477913
0.13166677
0.12794629
0.12337909
0.11762912
0.1103263
0.10110719
0.089637604
0.075634088
0.05891995
0.039615258
0.016863607
0.1404552
0.13948507
0.13754279
0.13492211
0.13175311
0.12797222
0.12334928
0.11755492
0.11022323
0.10099255
0.089528507
0.07554552
0.058862376
0.039591239
0.016863625
0.14066026
0.13967849
0.13770874
0.13504523
0.1318223
0.12798394
0.12330816
0.1174721
0.11011393
0.10087375
0.089416968
0.075455827
0.058804518
0.03956726
0.016863558
0.14084249
0.1398496
0.13785368
0.1351494
0.13187514
0.12798218
0.12325638
0.11738122
0.10999888
0.1007512
0.089303308
0.075365235
0.058746509
0.039543373
0.016863408
0.14100291
0.13999942
0.13797857
0.13523549
0.13191242
0.12796761
0.12319453
0.11728282
0.10987856
0.10062528
0.089187837
0.075273965
0.058688477
0.039519627
0.016863182
0.14114252
0.14012891
0.13808433
0.13530434
0.13193489
0.12794092
0.12312322
0.11717742
0.10975342
0.10049639
0.089070853
0.075182226
0.058630543
0.039496066
0.016862884
0.14126227
0.14023903
0.13817186
0.13535679
0.13194331
0.12790277
0.12304303
0.11706553
0.10962389
0.10036488
0.088952643
0.075090218
0.05857282
0.039472734
0.016862517
0.14136311
0.1403307
0.13824203
0.13539364
0.1319384
0.12785379
0.12295452
0.11694765
0.10949041
0.10023111
0.088833481
0.074998131
0.058515418
0.03944967
0.016862088
0.14144595
0.1404048
0.13829571
0.13541569
0.13192086
0.12779463
0.12285825
0.11682425
0.10935339
0.10009542
0.088713631
0.074906147
0.058458436
0.03942691
0.016861599
0.14151167
0.1404622
0.13833372
0.13542369
0.13189139
0.12772588
0.12275475
0.11669582
0.10921322
0.09995814
0.088593342
0.074814436
0.058401969
0.039404489
0.016861056
0.14156112
0.14050375
0.13835684
0.13541837
0.13185064
0.12764813
0.12264454
0.11656278
0.10907028
0.099819578
0.088472852
0.074723158
0.058346105
0.039382436
0.016860462
0.14159513