/*--------------------------------*- C++ -*----------------------------------*\
| =========                 |                                                 |
| \\      /  F ield         | OpenFOAM: The Open Source CFD Toolbox           |
|  \\    /   O peration     | Version:  2506                                  |
|   \\  /    A nd           | Website:  www.openfoam.com                      |
|    \\/     M anipulation  |                                                 |
\*---------------------------------------------------------------------------*/
FoamFile
{
    version     2.0;
    format      ascii;
    arch        "LSB;label=32;scalar=64";
    class       volScalarField;
    location    "16000/water";
    object      k;
}
// * * * * * * * * * * * * * * * * * * * * * * * * * * * * * * * * * * * * * //

dimensions      [0 2 -2 0 0 0 0];

internalField   nonuniform List<scalar> 
6000
(
0.0002144485
0.00021444827
0.00021444833
0.00021444852
0.00021444878
0.00021444911
0.00021444953
0.00021445001
0.00021445038
0.00021444961
0.00021444477
0.00021444847
0.00021482328
0.00022098609
0.00033298785
0.00019735372
0.00019735408
0.00019735481
0.00019735601
0.00019735759
0.00019735962
0.00019736212
0.0001973649
0.00019736678
0.00019736231
0.00019733424
0.0001972933
0.00019808165
0.00021190706
0.00042108833
0.00018260526
0.00018260625
0.00018260756
0.00018260957
0.0001826122
0.00018261554
0.00018261945
0.00018262311
0.00018262253
0.00018260174
0.00018251429
0.00018235696
0.00018354965
0.00020571076
0.0004915993
0.00016977104
0.00016977195
0.00016977358
0.00016977617
0.00016977959
0.00016978384
0.00016978847
0.00016979119
0.00016978242
0.00016972799
0.0001695392
0.00016920344
0.00017083025
0.00020141509
0.00054314021
0.00015851703
0.00015851791
0.00015851979
0.00015852287
0.0001585269
0.00015853173
0.00015853623
0.00015853548
0.0001585108
0.00015840225
0.00015807228
0.00015752308
0.00015966967
0.00019844232
0.00057747636
0.00014858047
0.00014858142
0.00014858351
0.00014858695
0.00014859139
0.00014859636
0.00014859955
0.0001485919
0.00014854197
0.00014835849
0.00014785779
0.00014709963
0.00014993181
0.00019659445
0.00059772639
0.00013975169
0.00013975271
0.00013975496
0.00013975864
0.00013976325
0.00013976781
0.00013976817
0.00013974945
0.00013966425
0.0001393877
0.00013870223
0.00013778194
0.00014154644
0.00019585229
0.00060724748
0.00013186192
0.00013186298
0.00013186534
0.00013186914
0.00013187366
0.00013187713
0.00013187282
0.00013183836
0.00013170812
0.00013132527
0.00013045854
0.00012946164
0.00013447268
0.00019626303
0.00060905754
0.00012477404
0.00012477514
0.00012477755
0.00012478136
0.00012478548
0.00012478703
0.00012477592
0.00012472085
0.00012453699
0.00012404097
0.00012301362
0.00012205827
0.00012868159
0.00019789321
0.0006056161
0.00011837572
0.00011837682
0.00011837924
0.0001183829
0.00011838626
0.00011838492
0.00011836468
0.00011828424
0.00011804014
0.00011743108
0.00011627928
0.00011550993
0.00012414935
0.00020080676
0.00059880682
0.0001125741
0.0001125752
0.00011257756
0.00011258091
0.00011258305
0.00011257774
0.00011254594
0.00011243584
0.00011212738
0.0001114124
0.00011018555
0.00010976786
0.00012085593
0.00020505367
0.00059001308
0.00010729189
0.00010729297
0.0001072952
0.00010729803
0.00010729845
0.00010728799
0.00010724223
0.00010709893
0.00010672477
0.00010591759
0.00010467621
0.00010479348
0.00011878602
0.00021066301
0.00058022149
0.0001024643
0.00010246533
0.00010246733
0.00010246942
0.00010246756
0.00010245071
0.00010238875
0.00010220964
0.0001017714
0.00010089174
9.9705638e-05
0.000100557
0.00011793046
0.00021763683
0.00057012062
9.8036637e-05
9.8037572e-05
9.8039255e-05
9.8040328e-05
9.8035582e-05
9.8011091e-05
9.7930966e-05
9.7714594e-05
9.7216801e-05
9.6289669e-05
9.5236719e-05
9.703687e-05
0.00011828673
0.00022594366
0.0005601824
9.3962451e-05
9.3963259e-05
9.3964497e-05
9.3964262e-05
9.3955981e-05
9.3922652e-05
9.3822751e-05
9.3568903e-05
9.3018884e-05
9.2074025e-05
9.1239503e-05
9.4219615e-05
0.00011985802
0.00023551194
0.0005507241
9.0202076e-05
9.020271e-05
9.0203366e-05
9.0201504e-05
9.0189027e-05
9.0145749e-05
9.0024925e-05
8.9734681e-05
8.9142411e-05
8.8213812e-05
8.7690325e-05
9.20998e-05
0.00012265037
0.00024622465
0.00054195294
8.6721448e-05
8.6721856e-05
8.6721776e-05
8.6717945e-05
8.6700619e-05
8.664642e-05
8.6504047e-05
8.61798e-05
8.5557736e-05
8.4683334e-05
8.4571272e-05
9.0679902e-05
0.00012666793
0.00025791693
0.00053399692
8.3491166e-05
8.3491287e-05
8.3490304e-05
8.3484151e-05
8.3461349e-05
8.3395437e-05
8.3231463e-05
8.2876915e-05
8.2239851e-05
8.1461425e-05
8.1869885e-05
8.9969913e-05
0.00013190642
0.00027037857
0.00052692519
8.0485733e-05
8.0485502e-05
8.0483437e-05
8.0474603e-05
8.0445747e-05
8.0367548e-05
8.018253e-05
7.9802669e-05
7.9167636e-05
7.8530889e-05
7.9578989e-05
8.9986538e-05
0.00013834557
0.00028336255
0.00052076146
7.7682937e-05
7.7682283e-05
7.767895e-05
7.7667083e-05
7.7631664e-05
7.7540855e-05
7.7335982e-05
7.6937064e-05
7.6323276e-05
7.5878109e-05
7.7696612e-05
9.0751816e-05
0.00014594134
0.00029659939
0.00051549302
7.5063349e-05
7.5062196e-05
7.5057404e-05
7.5042167e-05
7.4999765e-05
7.4896302e-05
7.4673418e-05
7.4262946e-05
7.369182e-05
7.3492783e-05
7.6225917e-05
9.229105e-05
0.00015461944
0.000309816
0.00051107779
7.2609902e-05
7.2608172e-05
7.260173e-05
7.2582813e-05
7.2533118e-05
7.2417256e-05
7.2178869e-05
7.1765596e-05
7.1260831e-05
7.1367745e-05
7.5175079e-05
9.4629939e-05
0.00016427135
0.00032275576
0.00050745065
7.0307551e-05
7.0305165e-05
7.0296888e-05
7.0274015e-05
7.0216842e-05
7.0089161e-05
6.9838457e-05
6.94324e-05
6.9020131e-05
6.949887e-05
7.4557053e-05
9.7790947e-05
0.00017475428
0.00033519669
0.00050453
6.8142984e-05
6.8139863e-05
6.8129574e-05
6.8102519e-05
6.8037823e-05
6.7899244e-05
6.7640104e-05
6.7252585e-05
6.6961603e-05
6.7885016e-05
7.438916e-05
0.00010178904
0.0001858954
0.00034696444
0.00050222457
6.6104382e-05
6.6100451e-05
6.608799e-05
6.6056581e-05
6.5984475e-05
6.5836276e-05
6.5573296e-05
6.5217006e-05
6.5079053e-05
6.6528011e-05
7.4692423e-05
0.00010662718
0.00019750038
0.00035793856
0.00050043991
6.418122e-05
6.4176406e-05
6.4161633e-05
6.4125766e-05
6.4046535e-05
6.3890369e-05
6.3628889e-05
6.3317981e-05
6.3368113e-05
6.5432644e-05
7.5490606e-05
0.00011229203
0.00020936499
0.00036805173
0.00049908424
6.2364094e-05
6.2358333e-05
6.2341135e-05
6.230078e-05
6.2214894e-05
6.2052808e-05
6.1798947e-05
6.1549161e-05
6.182618e-05
6.4606648e-05
7.680889e-05
0.00011875054
0.00022128816
0.00037728353
0.00049807291
6.064458e-05
6.0637817e-05
6.0618111e-05
6.0573325e-05
6.0481451e-05
6.031591e-05
6.0076617e-05
5.9905429e-05
6.045239e-05
6.4060643e-05
7.8672186e-05
0.00012594803
0.00023308444
0.00038565069
0.00049733132
5.9015114e-05
5.9007302e-05
5.8985044e-05
5.8935977e-05
5.8838997e-05
5.8672904e-05
5.8456016e-05
5.8382826e-05
5.9247607e-05
6.380802e-05
8.1103078e-05
0.00013380822
0.00024459408
0.00039319634
0.00049679626
5.746888e-05
5.745999e-05
5.7435175e-05
5.7382083e-05
5.7281105e-05
5.7117831e-05
5.6932149e-05
5.6978499e-05
5.8214438e-05
6.3864707e-05
8.4119511e-05
0.00014223536
0.00025568959
0.00039997992
0.00049641599
5.599973e-05
5.5989745e-05
5.596242e-05
5.590567e-05
5.5802046e-05
5.5645466e-05
5.5500841e-05
5.5690668e-05
5.7357258e-05
6.424881e-05
8.773233e-05
0.0001511185
0.00026627829
0.00040606902
0.00049614946
5.4602101e-05
5.4591025e-05
5.4561286e-05
5.4501369e-05
5.4396714e-05
5.4251246e-05
5.4158685e-05
5.4518612e-05
5.6682234e-05
6.4980079e-05
9.1942941e-05
0.00016033718
0.00027630116
0.00041153335
0.00049596497
5.3270953e-05
5.3258808e-05
5.3226813e-05
5.3164353e-05
5.3060564e-05
5.2931212e-05
5.2903001e-05
5.3462663e-05
5.6197343e-05
6.6079181e-05
9.6741327e-05
0.00016976802
0.00028572901
0.00041644086
0.00049583865
5.2001708e-05
5.198854e-05
5.1954511e-05
5.1890276e-05
5.1789556e-05
5.1681971e-05
5.1731808e-05
5.2524225e-05
5.5912363e-05
6.7566766e-05
0.00010210472
0.00017929137
0.00029455685
0.00042085544
0.00049575298
5.0790203e-05
5.0776083e-05
5.0740313e-05
5.067523e-05
5.0580113e-05
5.050065e-05
5.0643813e-05
5.1705789e-05
5.5838828e-05
6.946233e-05
0.00010799714
0.00018879709
0.0003027979
0.00042483586
0.00049569544
4.9632648e-05
4.9617675e-05
4.9580534e-05
4.9515698e-05
4.942908e-05
4.9384875e-05
4.9638394e-05
5.1010966e-05
5.5989918e-05
7.1782921e-05
0.00011437
0.00019818901
0.00031047772
0.00042843533
0.0004956574
4.8525586e-05
4.8509888e-05
4.8471831e-05
4.8408525e-05
4.8333699e-05
4.8332748e-05
4.8715611e-05
5.0444524e-05
5.6380276e-05
7.4541727e-05
0.00012116371
0.00020738765
0.00031762942
0.0004317015
0.00049563313
4.7465859e-05
4.74496e-05
4.7411173e-05
4.7350883e-05
4.7291577e-05
4.7342831e-05
4.7876207e-05
5.0012417e-05
5.702572e-05
7.7746679e-05
0.00012831013
0.00021633122
0.00032428982
0.00043467667
0.00049561908
4.6450583e-05
4.6433963e-05
4.6395814e-05
4.6340247e-05
4.6300671e-05
4.641414e-05
4.7121628e-05
4.9721817e-05
5.7942848e-05
8.1399166e-05
0.00013573578
0.0002249751
0.00033049682
0.00043739817
0.00049561324
4.5477121e-05
4.5460379e-05
4.5423267e-05
4.5374375e-05
4.5359268e-05
4.5546142e-05
4.6454049e-05
4.9581125e-05
5.9148508e-05
8.5493019e-05
0.00014336522
0.00023329015
0.00033628765
0.00043989867
0.00049561471
4.4543061e-05
4.4526479e-05
4.4491284e-05
4.4451289e-05
4.446598e-05
4.4738756e-05
4.5876394e-05
4.9599966e-05
6.0659159e-05
9.0013882e-05
0.00015112441
0.00024126036
0.0003416978
0.00044220662
0.00049562332
4.3646195e-05
4.3630105e-05
4.359784e-05
4.3569259e-05
4.3619731e-05
4.3992365e-05
4.5392377e-05
4.9789137e-05
6.24901e-05
9.493909e-05
0.0001589437
0.00024888021
0.00034676053
0.00044434668
0.00049563932
4.2784505e-05
4.2769292e-05
4.2741115e-05
4.2726796e-05
4.2819756e-05
4.3307822e-05
4.500653e-05
5.0160522e-05
6.4654626e-05
0.00010023808
0.00016676014
0.00025615208
0.00035150661
0.00044634014
0.00049566327
4.1956147e-05
4.1942252e-05
4.1919486e-05
4.1922641e-05
4.2065604e-05
4.2686474e-05
4.4724243e-05
5.0726936e-05
6.7163135e-05
0.00010587333
0.00017451901
0.00026308403
0.00035596427
0.00044820531
0.00049569579
4.1159436e-05
4.1147367e-05
4.1131511e-05
4.1155759e-05
4.1357137e-05
4.2130176e-05
4.4551789e-05
5.1501906e-05
7.0022255e-05
0.0001118018
0.0001821746
0.0002696879
0.00036015925
0.00044995792
0.00049573755
4.039284e-05
4.0383173e-05
4.0375928e-05
4.0425336e-05
4.0694537e-05
4.1641323e-05
4.4496352e-05
5.2499369e-05
7.3234062e-05
0.00011797661
0.00018969027
0.00027597786
0.0003641149
0.00045161147
0.00049578915
3.9654963e-05
3.9648355e-05
3.9651641e-05
3.9730781e-05
4.0078323e-05
4.1222872e-05
4.4566031e-05
5.3733284e-05
7.6795466e-05
0.00012434896
0.00019703788
0.00028196939
0.00036785236
0.00045317754
0.00049585112
3.8944544e-05
3.8941738e-05
3.8957721e-05
3.9071722e-05
3.9509355e-05
4.0878378e-05
4.476983e-05
5.521717e-05
8.0697839e-05
0.00013087001
0.00020419699
0.00028767848
0.00037139066
0.00045466608
0.00049592389
3.8260447e-05
3.8262283e-05
3.8293404e-05
3.8448018e-05
3.8988856e-05
4.0612024e-05
4.5117613e-05
5.6963568e-05
8.4926928e-05
0.00013749256
0.00021115369
0.00029312118
0.00037474695
0.00045608564
0.00049600778
3.7601653e-05
3.7609082e-05
3.7658086e-05
3.7859757e-05
3.851843e-05
4.0428652e-05
4.5620029e-05
5.8983444e-05
8.9463091e-05
0.00014417246
0.0002178995
0.00029831319
0.00037793661
0.00045744356
0.00049610301
3.6967262e-05
3.6981351e-05
3.7051327e-05
3.7307273e-05
3.8100083e-05
4.0333799e-05
4.628838e-05
6.1285582e-05
9.4281844e-05
0.00015086965
0.00022443029
0.00030326971
0.00038097346
0.0004587462
0.00049620967
3.6356483e-05
3.6378439e-05
3.6472854e-05
3.6791149e-05
3.7736252e-05
4.0333719e-05
4.7134449e-05
6.3875987e-05
9.9354667e-05
0.00015754881
0.00023074527
0.00030800524
0.00038386991
0.00045999903
0.00049632782
3.5768637e-05
3.5799814e-05
3.5922562e-05
3.6312237e-05
3.7429828e-05
4.0435397e-05
4.8170259e-05
6.6757355e-05
0.00010465002
0.00016417962
0.00023684619
0.00031253356
0.0003866371
0.00046120682
0.00049645738
3.5203153e-05
3.5245078e-05
3.5400526e-05
3.587167e-05
3.7184185e-05
4.064656e-05
4.9407776e-05
6.9928646e-05
0.00011013448
0.00017073673
0.00024273672
0.0003168676
0.00038928503
0.00046237371
0.00049659824
3.4659571e-05
3.4713957e-05
3.4907005e-05
3.5470884e-05
3.7003216e-05
4.0975654e-05
5.0858552e-05
7.3384822e-05
0.00011577386
0.0001771995
0.00024842185
0.00032101951
0.00039182273
0.0004635033
0.00049675024
3.4137541e-05
3.4206315e-05
3.4442453e-05
3.5111632e-05
3.6891359e-05
4.1431807e-05
5.2533324e-05
7.7116763e-05
0.00012153432
0.00018355155
0.00025390756
0.00032500062
0.0003942583
0.00046459877
0.00049691314
3.3636827e-05
3.3722154e-05
3.4007531e-05
3.4796016e-05
3.6853631e-05
4.2024758e-05
5.4441565e-05
8.1111386e-05
0.00012738326
0.0001897803
0.00025920045
0.00032882148
0.00039659907
0.00046566288
0.00049708671
3.3157312e-05
3.3261621e-05
3.3603121e-05
3.4526502e-05
3.689565e-05
4.2764744e-05
5.6591036e-05
8.5351967e-05
0.00013329011
0.00019587637
0.0002643075
0.00033249188
0.00039885166
0.00046669809
0.00049727064
3.2699001e-05
3.2825019e-05
3.3230344e-05
3.4305957e-05
3.7023661e-05
4.3662352e-05
5.8987342e-05
8.981864e-05
0.00013922683
0.00020183314
0.00026923591
0.00033602092
0.00040102205
0.00046770657
0.00049746465
3.2262029e-05
3.2412818e-05
3.2890574e-05
3.4137671e-05
3.7244542e-05
4.4728316e-05
6.1633539e-05
9.4489031e-05
0.00014516825
0.00020764625
0.00027399294
0.000339417
0.00040311569
0.00046869022
0.00049766841
3.1846672e-05
3.2025663e-05
3.2585463e-05
3.402539e-05
3.756581e-05
4.5973273e-05
6.4529812e-05
9.9338982e-05
0.0001510922
0.00021331317
0.00027858579
0.00034268791
0.00040513749
0.00046965077
0.00049788159
3.1453353e-05
3.1664392e-05
3.2316961e-05
3.3973345e-05
3.7995596e-05
4.7407473e-05
6.7673267e-05
0.00010434331
0.00015697949
0.00021883291
0.00028302153
0.00034584087
0.00040709192
0.00047058968
0.00049810386
3.1082657e-05
3.133005e-05
3.2087341e-05
3.3986286e-05
3.8542603e-05
4.904045e-05
7.1057851e-05
0.00010947653
0.00016281382
0.00022420566
0.00028730705
0.00034888261
0.00040898324
0.00047150443
0.00049833478
3.0735342e-05
3.1023913e-05
3.1899228e-05
3.4069503e-05
3.9216041e-05
5.0880669e-05
7.4674414e-05
0.00011471355
0.00016858151
0.00022943259
0.00029144902
0.00035181926
0.00041081467
0.00047239507
0.00049857391
3.0412362e-05
3.0747498e-05
3.1755625e-05
3.4228856e-05
4.0025518e-05
5.2935162e-05
7.8510904e-05
0.00012003019
0.00017427129
0.0002345156
0.00029545378
0.00035465641
0.00041258912
0.00047326295
0.00049882071
3.0114877e-05
3.0502598e-05
3.1659947e-05
3.4470787e-05
4.0980901e-05
5.5209177e-05
8.2552696e-05
0.00012540363
0.00017987402
0.00023945716
0.0002993274
0.00035739919
0.00041430938
0.00047410989
0.00049907467
2.9844281e-05
3.0291301e-05
3.1616047e-05
3.4802328e-05
4.2092136e-05
5.7705863e-05
8.678302e-05
0.00013081272
0.0001853824
0.00024426016
0.00030307573
0.00036005265
0.00041597751
0.00047493648
0.0004993353
2.9602222e-05
3.0116018e-05
3.1628257e-05
3.5231094e-05
4.3369026e-05
6.0426016e-05
9.1183468e-05
0.00013623819
0.00019079079
0.00024892784
0.00030670433
0.00036262128
0.000417595
0.00047574363
0.00049960217
2.9390631e-05
2.9979518e-05
3.1701409e-05
3.5765252e-05
4.4820977e-05
6.3367903e-05
9.5734524e-05
0.00014166271
0.00019609491
0.00025346365
0.00031021841
0.0003651089
0.00041916378
0.00047653274
0.00049987495
2.9211752e-05
2.9884956e-05
3.1840875e-05
3.641348e-05
4.6456705e-05
6.6527192e-05
0.00010041609
0.00014707089
0.00020129166
0.00025787114
0.00031362281
0.00036751903
0.00042068624
0.00047730511
0.00050015336
2.9068173e-05
2.9835914e-05
3.2052585e-05
3.7184879e-05
4.8283938e-05
6.9896977e-05
0.00010520799
0.00015244923
0.00020637894
0.00026215394
0.00031692219
0.00036985503
0.00042216442
0.00047806213
0.00050043718
2.8962865e-05
2.9836431e-05
3.234305e-05
3.8088871e-05
5.0309095e-05
7.3467924e-05
0.00011009041
0.00015778601
0.00021135554
0.00026631585
0.00032012127
0.00037211983
0.00042359913
0.00047880561
0.00050072627
2.8899218e-05
2.9891048e-05
3.2719371e-05
3.9135046e-05
5.2536997e-05
7.7228502e-05
0.00011504421
0.00016307115
0.00021622092
0.00027036053
0.00032322392
0.00037431561
0.00042499296
0.00047953646
0.00050102047
2.8881088e-05
3.0004838e-05
3.3189235e-05
4.0332988e-05
5.4970594e-05
8.1165305e-05
0.00012005128
0.00016829608
0.0002209751
0.00027429152
0.00032623367
0.00037644512
0.00042634819
0.00048025523
0.0005013196
2.8912838e-05
3.0183453e-05
3.3760895e-05
4.169205e-05
5.7610759e-05
8.526342e-05
0.00012509468
0.00017345354
0.00022561855
0.0002781122
0.00032915392
0.00037851123
0.00042766686
0.00048096234
0.00050162344
2.8999385e-05
3.043315e-05
3.4443127e-05
4.3221104e-05
6.045614e-05
8.9506838e-05
0.00013015875
0.00017853754
0.00023015226
0.00028182647
0.00033198843
0.00038051456
0.00042895138
0.00048165851
0.00050193179
2.9146247e-05
3.076082e-05
3.5245156e-05
4.492827e-05
6.3503102e-05
9.387886e-05
0.00013522921
0.00018354314
0.00023457747
0.00028543745
0.00033473928
0.00038245835
0.00043020341
0.00048234437
0.00050224443
2.9359593e-05
3.1174013e-05
3.6176556e-05
4.6820622e-05
6.6745753e-05
9.836248e-05
0.00014029314
0.0001884663
0.0002388955
0.00028894796
0.00033740912
0.00038434552
0.00043142431
0.00048302039
0.00050256119
2.9646283e-05
3.1680941e-05
3.7247114e-05
4.890391e-05
7.0176059e-05
0.00010294074
0.00014533895
0.00019330377
0.0002431078
0.00029236074
0.00034000084
0.00038617868
0.00043261525
0.0004836869
0.00050288185
3.0013911e-05
3.2290468e-05
3.8466649e-05
5.1182285e-05
7.3784039e-05
0.00010759703
0.00015035632
0.00019805314
0.00024721656
0.00029567951
0.00034251496
0.00038796054
0.0004337776
0.00048434422
0.00050320621
3.0470833e-05
3.3012082e-05
3.9844801e-05
5.3658068e-05
7.7558024e-05
0.00011231532
0.00015533615
0.00020271255
0.00025122334
0.00029890572
0.00034495508
0.00038969319
0.00043491256
0.00048499265
0.00050353407
3.1026183e-05
3.3855825e-05
4.1390786e-05
5.6331576e-05
8.148496e-05
0.00011708035
0.0001602704
0.00020728048
0.0002551296
0.00030204157
0.00034732434
0.0003913785
0.00043602117
0.00048563247
0.00050386521
3.1689876e-05
3.4832207e-05
4.3113116e-05
5.920101e-05
8.5550739e-05
0.00012187774
0.00016515206
0.00021175603
0.00025893728
0.00030508875
0.00034962561
0.00039301821
0.00043710433
0.00048626388
0.00050419944
3.2472575e-05
3.5952062e-05
4.5019312e-05
6.2262417e-05
8.9740534e-05
0.00012669409
0.00016997511
0.00021613883
0.00026264852
0.00030804843
0.00035186155
0.00039461407
0.00043816291
0.00048688705
0.00050453655
3.3385631e-05
3.7226371e-05
4.7115605e-05
6.5509736e-05
9.4039112e-05
0.00013151701
0.00017473424
0.00022042826
0.00026626391
0.00031092398
0.00035403444
0.00039616765
0.00043919769
0.00048750213
0.00050487635
3.4440982e-05
3.866603e-05
4.9406661e-05
6.8934921e-05
9.8431118e-05
0.00013633506
0.00017942476
0.00022462382
0.0002697848
0.00031371829
0.00035614637
0.00039768035
0.00044020939
0.00048810923
0.00050521864
3.5650991e-05
4.0281582e-05
5.1895327e-05
7.2528127e-05
0.00010290135
0.00014113792
0.00018404318
0.00022872687
0.00027321047
0.00031643403
0.00035819937
0.00039915348
0.00044119863
0.00048870846
0.00050556322
3.702823e-05
4.20829e-05
5.4582437e-05
7.627795e-05
0.00010743496
0.00014591612
0.00018858596
0.00023273618
0.00027654355
0.00031907354
0.00036019535
0.00040058824
0.00044216601
0.00048929987
0.00050590989
3.85852e-05
4.4078844e-05
5.7466674e-05
8.0171694e-05
0.00011201754
0.00015066094
0.00019304976
0.00023665127
0.00027978651
0.00032163898
0.00036213603
0.00040198575
0.00044311204
0.00048988351
0.00050625846
4.0333976e-05
4.62769e-05
6.0544513e-05
8.4195682e-05
0.00011663544
0.00015536501
0.00019743343
0.00024047004
0.00028294149
0.00032413242
0.00036402298
0.000403347
0.0004440372
0.00049045942
0.00050660875
4.2285791e-05
4.8682824e-05
6.3810236e-05
8.833553e-05
0.0001212756
0.00016002114
0.00020173344
0.00024419357
0.00028601044
0.00032655581
0.00036585769
0.00040467292
0.00044494188
0.00049102759
0.00050696055
4.4450575e-05
5.1300313e-05
6.7256023e-05
9.2576408e-05
0.0001259257
0.0001646228
0.00020594656
0.00024782318
0.00028899515
0.0003289109
0.0003676415
0.00040596434
0.00044582647
0.00049158801
0.00050731369
4.6836452e-05
5.4130715e-05
7.0872127e-05
9.6903391e-05
0.00013057453
0.00016916548
0.00021006866
0.00025135991
0.00029189737
0.00033119935
0.00036937565
0.00040722201
0.00044669127
0.00049214065
0.00050766797
4.944925e-05
5.7172814e-05
7.4647066e-05
0.00010130149
0.00013521102
0.00017364211
0.00021409922
0.00025480474
0.00029471871
0.00033342266
0.00037106126
0.00040844662
0.00044753656
0.00049268546
0.00050802321
5.2292038e-05
6.0422708e-05
7.8567948e-05
0.00010575625
0.00013982631
0.0001780451
0.0002180375
0.00025815861
0.00029746065
0.00033558221
0.00037269934
0.00040963875
0.00044836256
0.00049322236
0.00050837921
5.5364745e-05
6.3873751e-05
8.2620644e-05
0.00011025322
0.00014440994
0.00018236978
0.00022188278
0.00026142243
0.00030012455
0.00033767927
0.00037429082
0.00041079894
0.00044916946
0.00049375128
0.0005087358
5.8663901e-05
6.7516682e-05
8.6790397e-05
0.0001147797
0.00014895017
0.00018661248
0.00022563446
0.00026459701
0.00030271166
0.00033971495
0.00037583651
0.00041192765
0.0004499574
0.0004942721
0.00050909279
6.2182519e-05
7.1339753e-05
9.1061794e-05
0.00011932099
0.00015343811
0.00019076983
0.00022929197
0.0002676831
0.00030522307
0.00034169028
0.00037733713
0.00041302527
0.00045072647
0.00049478471
0.00050944999
6.5910201e-05
7.5329191e-05
9.5419592e-05
0.00012386172
0.00015786616
0.00019483869
0.0002328548
0.00027068136
0.00030765978
0.00034360615
0.00037879331
0.00041409212
0.00045147675
0.00049528895
0.00050980721
6.9833691e-05
7.9469705e-05
9.984531e-05
0.00012838914
0.00016222726
0.00019881621
0.00023632246
0.00027359235
0.00031002265
0.00034546332
0.00038020556
0.00041512846
0.00045220824
0.00049578467
0.00051016426
7.3936177e-05
8.3742444e-05
0.00010432175
0.00013289127
0.00016651493
0.00020269974
0.00023969444
0.00027641654
0.00031231242
0.00034726245
0.00038157434
0.00041613448
0.00045292092
0.00049627169
0.00051052094
7.8197602e-05
8.8127415e-05
0.00010883201
0.00013735687
0.00017072318
0.00020648685
0.00024297026
0.00027915431
0.0003145297
0.00034900409
0.00038289998
0.0004171103
0.00045361473
0.00049674981
0.00051087705
8.2595738e-05
9.2603761e-05
0.00011335961
0.00014177544
0.00017484651
0.00021017527
0.0002461494
0.00028180591
0.00031667498
0.00035068867
0.00038418274
0.00041805599
0.00045428956
0.00049721879
0.0005112324
8.7106849e-05
9.7150188e-05
0.00011788867
0.00014613719
0.00017887989
0.00021376289
0.00024923133
0.00028437153
0.00031874864
0.00035231651
0.00038542278
0.00041897154
0.00045494527
0.00049767841
0.00051158678
9.1706359e-05
0.00010174537
0.00012240397
0.00015043308
0.0001828187
0.00021724777
0.00025221551
0.00028685124
0.00032075093
0.00035388782
0.0003866202
0.00041985688
0.00045558166
0.00049812838
0.00051193996
9.6369475e-05
0.00010636832
0.00012689108
0.00015465476
0.00018665875
0.00022062815
0.00025510142
0.00028924505
0.00032268201
0.00035540273
0.00038777499
0.00042071189
0.00045619851
0.00049856843
0.00051229173
0.00010107176
0.00011099872
0.00013133642
0.00015879458
0.00019039626
0.0002239024
0.0002578885
0.00029155288
0.00032454194
0.00035686124
0.00038888706
0.00042153637
0.00045679553
0.00049899823
0.00051264185
0.0001057896
0.0001156172
0.00013572732
0.0001628456
0.00019402788
0.00022706907
0.00026057626
0.00029377461
0.00032633069
0.00035826329
0.00038995625
0.00042233008
0.00045737243
0.00049941746
0.00051299009
0.00011050063
0.00012020557
0.00014005211
0.00016680153
0.00019755062
0.00023012692
0.00026316421
0.00029591006
0.00032804814
0.00035960874
0.00039098234
0.00042309271
0.00045792884
0.00049982574
0.0005133362
0.00011518397
0.00012474697
0.00014430007
0.00017065676
0.00020096191
0.00023307486
0.00026565193
0.00029795905
0.00032969414
0.00036089735
0.00039196503
0.0004238239
0.00045846438
0.00050022271
0.00051367991
0.00011982052
0.000129226
0.00014846157
0.00017440633
0.00020425956
0.00023591202
0.00026803908
0.00029992137
0.00033126848
0.00036212886
0.00039290397
0.00042452325
0.00045897861
0.00050060794
0.00051402094
0.000124393
0.00013362877
0.00015252797
0.00017804594
0.00020744178
0.00023863775
0.0002703254
0.00030179683
0.00033277091
0.00036330294
0.00039379877
0.00042519031
0.00045947108
0.00050098103
0.00051435903
0.00012888605
0.00013794299
0.00015649167
0.00018157191
0.00021050716
0.00024125161
0.00027251074
0.0003035853
0.0003342012
0.00036441923
0.00039464898
0.00042582459
0.00045994132
0.00050134151
0.00051469386
0.00013328622
0.00014215786
0.00016034608
0.00018498117
0.00021345466
0.00024375341
0.00027459509
0.00030528667
0.0003355591
0.00036547738
0.00039545414
0.0004264256
0.0004603888
0.00050168894
0.00051502514
0.00013758192
0.00014626412
0.0001640856
0.00018827122
0.0002162836
0.00024614317
0.00027657858
0.00030690093
0.00033684441
0.00036647701
0.00039621379
0.00042699281
0.00046081301
0.00050202284
0.00051535253
0.00014176336
0.00015025394
0.00016770556
0.00019144016
0.00021899368
0.00024842116
0.00027846148
0.00030842816
0.00033805698
0.00036741778
0.00039692745
0.00042752569
0.00046121342
0.00050234275
0.00051567572
0.0001458224
0.00015412085
0.00017120221
0.00019448661
0.0002215849
0.00025058789
0.00028024424
0.00030986854
0.0003391967
0.00036829937
0.00039759466
0.0004280237
0.0004615895
0.00050264817
0.00051599437
0.00014975247
0.00015785965
0.00017457261
0.00019740969
0.00022405762
0.00025264409
0.00028192748
0.00031122238
0.00034026357
0.00036912152
0.000398215
0.00042848635
0.00046194074
0.00050293864
0.00051630812
0.00015354841
0.00016146632
0.00017781464
0.00020020902
0.0002264125
0.00025459073
0.000283512
0.00031249014
0.00034125768
0.00036988404
0.00039878808
0.00042891316
0.00046226662
0.00050321369
0.00051661663
0.00015720635
0.0001649379
0.00018092687
0.00020288465
0.00022865049
0.00025642898
0.00028499878
0.00031367239
0.00034217924
0.00037058682
0.00039931358
0.00042930367
0.00046256667
0.00050347288
0.00051691954
0.00016072359
0.00016827241
0.00018390858
0.00020543706
0.0002307728
0.00025816024
0.00028638896
0.00031476989
0.00034302855
0.00037122983
0.00039979125
0.00042965751
0.00046284045
0.00050371578
0.00051721649
0.00016409845
0.00017146871
0.00018675961
0.00020786707
0.0002327809
0.00025978609
0.00028768388
0.00031578352
0.00034380608
0.00037181317
0.00040022091
0.00042997435
0.00046308758
0.000503942
0.00051750713
0.00016733016
0.00017452646
0.00018948037
0.00021017589
0.00023467647
0.00026130829
0.00028888501
0.00031671433
0.00034451242
0.00037233705
0.0004006025
0.00043025394
0.00046330772
0.00050415118
0.0005177911
0.00017041873
0.00017744598
0.00019207175
0.00021236502
0.00023646141
0.00026272878
0.00028999401
0.00031756352
0.00034514829
0.00037280179
0.00040093605
0.00043049611
0.00046350061
0.00050434302
0.00051806805
0.00017336488
0.00018022818
0.00019453506
0.00021443621
0.00023813782
0.00026404963
0.00029101268
0.00031833244
0.00034571459
0.00037320786
0.00040122169
0.00043070081
0.00046366603
0.00050451725
0.00051833766
0.00017616991
0.00018287449
0.00019687199
0.0002163915
0.00023970793
0.00026527307
0.00029194294
0.00031902259
0.00034621232
0.00037355585
0.00040145971
0.00043086805
0.00046380389
0.00050467367
0.00051859959
0.00017883564
0.00018538678
0.00019908457
0.00021823312
0.00024117413
0.00026640144
0.00029278687
0.0003196356
0.00034664265
0.0003738465
0.00040165047
0.00043099798
0.00046391416
0.00050481212
0.00051885355
0.00018136429
0.0001877673
0.00020117508
0.00021996349
0.00024253893
0.00026743718
0.00029354662
0.00032017323
0.00034700688
0.00037408068
0.00040179451
0.00043109086
0.00046399688
0.00050493253
0.00051909923
0.00018375846
0.00019001859
0.00020314607
0.00022158519
0.00024380497
0.00026838284
0.00029422449
0.00032063736
0.00034730644
0.0003742594
0.00040189246
0.00043114704
0.00046405223
0.00050503489
0.00051933639
0.00018602104
0.0001921435
0.00020500028
0.00022310093
0.00024497495
0.00026924102
0.00029482283
0.00032102997
0.00034754289
0.00037438379
0.00040194511
0.000431167
0.00046408046
0.00050511924
0.00051956476
0.00018815516
0.00019414505
0.00020674061
0.00022451354
0.00024605165
0.00027001442
0.00029534409
0.00032135316
0.00034771789
0.00037445511
0.00040195334
0.00043115136
0.00046408192
0.00050518572
0.00051978415
0.00019016414
0.00019602645
0.0002083701
0.00022582593
0.00024703792
0.00027070575
0.00029579078
0.00032160909
0.00034783324
0.00037447475
0.00040191819
0.00043110081
0.00046405705
0.00050523453
0.00051999435
0.00019205145
0.00019779104
0.0002098919
0.0002270411
0.00024793665
0.0002713178
0.00029616546
0.00032180003
0.0003478908
0.00037444419
0.00040184078
0.00043101619
0.00046400641
0.00050526593
0.00052019522
0.00019382069
0.00019944228
0.00021130923
0.00022816208
0.00024875075
0.00027185335
0.00029647073
0.00032192828
0.00034789255
0.00037436505
0.00040172236
0.00043089841
0.00046393063
0.00050528025
0.00052038662
0.00019547551
0.00020098369
0.00021262538
0.00022919195
0.00024948317
0.00027231524
0.00029670923
0.00032199622
0.00034784053
0.000374239
0.00040156428
0.00043074851
0.00046383042
0.0005052779
0.00052056846
0.00019701964
0.00020241884
0.00021384367
0.00023013381
0.00025013686
0.00027270627
0.00029688362
0.00032200627
0.00034773685
0.00037406783
0.00040136798
0.0004305676
0.00046370661
0.00050525935
0.00052074068
0.00019845683
0.00020375133
0.00021496747
0.00023099079
0.00025071477
0.00027302929
0.00029699656
0.00032196087
0.00034758368
0.00037385339
0.00040113499
0.00043035689
0.00046356006
0.0005052251
0.00052090324
0.00019979084
0.00020498478
0.00021600011
0.00023176598
0.00025121984
0.00027328709
0.00029705074
0.0003218625
0.00034738322
0.00037359759
0.0004008669
0.00043011765
0.00046339172
0.00050517573
0.00052105614
0.00020102542
0.00020612279
0.00021694496
0.00023246249
0.000251655
0.0002734825
0.00029704881
0.00032171364
0.00034713774
0.0003733024
0.00040056538
0.00042985125
0.00046320261
0.00050511186
0.00052119943
0.00020216431
0.00020716894
0.00021780533
0.00023308341
0.00025202315
0.00027361827
0.00029699343
0.00032151677
0.00034684949
0.00037296982