/*--------------------------------*- C++ -*----------------------------------*\
| =========                 |                                                 |
| \\      /  F ield         | OpenFOAM: The Open Source CFD Toolbox           |
|  \\    /   O peration     | Version:  2506                                  |
|   \\  /    A nd           | Website:  www.openfoam.com                      |
|    \\/     M anipulation  |                                                 |
\*---------------------------------------------------------------------------*/
FoamFile
{
    version     2.0;
    format      ascii;
    arch        "LSB;label=32;scalar=64";
    class       volScalarField;
    location    "16000/water";
    object      T;
}
// * * * * * * * * * * * * * * * * * * * * * * * * * * * * * * * * * * * * * //

dimensions      [0 0 0 1 0 0 0];

internalField   nonuniform List<scalar> 
6000
(
333.15
333.15
333.15
333.15
333.15
333.15
333.15
333.15
333.15
333.15
333.15
333.14998
333.14989
333.14924
333.14256
333.15
333.15
333.15
333.15
333.15
333.15
333.15
333.15
333.15
333.15
333.14999
333.14994
333.14968
333.14816
333.13666
333.15
333.15
333.15
333.15
333.15
333.15
333.15
333.15
333.15
333.14999
333.14997
333.14987
333.14939
333.14689
333.13172
333.15
333.15
333.15
333.15
333.15
333.15
333.15
333.15
333.15
333.14999
333.14994
333.14976
333.14903
333.14547
333.12739
333.15
333.15
333.15
333.15
333.15
333.15
333.15
333.15
333.14999
333.14997
333.1499
333.14963
333.1486
333.14396
333.12351
333.15
333.15
333.15
333.15
333.15
333.15
333.15
333.15
333.14999
333.14996
333.14985
333.14947
333.14812
333.14237
333.11998
333.15
333.15
333.15
333.15
333.15
333.15
333.15
333.14999
333.14998
333.14994
333.14978
333.14929
333.1476
333.14073
333.11673
333.15
333.15
333.15
333.15
333.15
333.15
333.15
333.14999
333.14997
333.14991
333.1497
333.14909
333.14703
333.13906
333.11372
333.15
333.15
333.15
333.15
333.15
333.15
333.15
333.14999
333.14996
333.14987
333.14961
333.14886
333.14643
333.13736
333.11092
333.15
333.15
333.15
333.15
333.15
333.15
333.14999
333.14998
333.14994
333.14983
333.14951
333.14862
333.14578
333.13566
333.1083
333.15
333.15
333.15
333.15
333.15
333.15
333.14999
333.14998
333.14993
333.14978
333.1494
333.14836
333.1451
333.13396
333.10585
333.15
333.15
333.15
333.15
333.15
333.15
333.14999
333.14997
333.1499
333.14973
333.14928
333.14807
333.14437
333.13227
333.10356
333.15
333.15
333.15
333.15
333.15
333.14999
333.14998
333.14996
333.14988
333.14967
333.14915
333.14777
333.14361
333.13059
333.10143
333.15
333.15
333.15
333.15
333.15
333.14999
333.14998
333.14994
333.14985
333.14961
333.14901
333.14745
333.1428
333.12893
333.09943
333.15
333.15
333.15
333.15
333.15
333.14999
333.14997
333.14993
333.14982
333.14954
333.14886
333.1471
333.14195
333.1273
333.09758
333.15
333.15
333.15
333.15
333.15
333.14999
333.14997
333.14991
333.14978
333.14946
333.1487
333.14673
333.14106
333.12571
333.09586
333.15
333.15
333.15
333.15
333.14999
333.14998
333.14996
333.1499
333.14974
333.14938
333.14852
333.14634
333.14013
333.12416
333.09428
333.15
333.15
333.15
333.15
333.14999
333.14998
333.14995
333.14988
333.1497
333.14929
333.14834
333.14591
333.13915
333.12265
333.09282
333.15
333.15
333.15
333.15
333.14999
333.14998
333.14994
333.14985
333.14965
333.1492
333.14814
333.14546
333.13814
333.1212
333.09149
333.15
333.15
333.15
333.14999
333.14999
333.14997
333.14993
333.14983
333.1496
333.14909
333.14793
333.14497
333.13709
333.1198
333.09028
333.15
333.15
333.15
333.14999
333.14999
333.14997
333.14992
333.1498
333.14955
333.14899
333.1477
333.14444
333.13601
333.11846
333.08918
333.15
333.15
333.15
333.14999
333.14998
333.14996
333.1499
333.14977
333.14949
333.14887
333.14745
333.14388
333.13491
333.11718
333.08818
333.15
333.15
333.15
333.14999
333.14998
333.14995
333.14989
333.14974
333.14943
333.14875
333.14718
333.14328
333.13379
333.11597
333.08728
333.15
333.15
333.14999
333.14999
333.14998
333.14994
333.14987
333.14971
333.14936
333.14861
333.1469
333.14263
333.13266
333.11482
333.08647
333.15
333.15
333.14999
333.14999
333.14997
333.14993
333.14985
333.14967
333.14929
333.14847
333.14659
333.14195
333.13153
333.11374
333.08574
333.15
333.15
333.14999
333.14998
333.14997
333.14992
333.14983
333.14963
333.14921
333.14831
333.14625
333.14122
333.13042
333.11272
333.08508
333.15
333.15
333.14999
333.14998
333.14996
333.14991
333.14981
333.14959
333.14913
333.14815
333.14588
333.14046
333.12932
333.11175
333.08449
333.15
333.14999
333.14999
333.14998
333.14996
333.1499
333.14979
333.14954
333.14904
333.14797
333.14549
333.13967
333.12824
333.11085
333.08395
333.15
333.14999
333.14999
333.14998
333.14995
333.14989
333.14976
333.14949
333.14895
333.14777
333.14506
333.13885
333.1272
333.10999
333.08346
333.14999
333.14999
333.14999
333.14997
333.14994
333.14987
333.14973
333.14944
333.14884
333.14756
333.1446
333.13801
333.12619
333.10919
333.08302
333.14999
333.14999
333.14998
333.14997
333.14993
333.14986
333.1497
333.14939
333.14873
333.14733
333.14411
333.13715
333.12521
333.10843
333.08262
333.14999
333.14999
333.14998
333.14996
333.14992
333.14984
333.14967
333.14932
333.14862
333.14708
333.14359
333.13628
333.12427
333.10772
333.08225
333.14999
333.14999
333.14998
333.14996
333.14991
333.14982
333.14964
333.14926
333.14849
333.14681
333.14303
333.13541
333.12337
333.10705
333.08192
333.14999
333.14999
333.14998
333.14995
333.1499
333.1498
333.1496
333.14919
333.14835
333.14652
333.14244
333.13455
333.12251
333.10641
333.08161
333.14999
333.14998
333.14997
333.14995
333.14989
333.14978
333.14956
333.14911
333.1482
333.1462
333.14183
333.13369
333.12169
333.10581
333.08133
333.14999
333.14998
333.14997
333.14994
333.14988
333.14976
333.14952
333.14903
333.14803
333.14586
333.14119
333.13284
333.1209
333.10524
333.08106
333.14999
333.14998
333.14997
333.14993
333.14987
333.14974
333.14947
333.14894
333.14786
333.14549
333.14053
333.13201
333.12015
333.1047
333.08082
333.14998
333.14998
333.14996
333.14993
333.14985
333.14971
333.14942
333.14885
333.14766
333.14509
333.13986
333.1312
333.11943
333.10419
333.0806
333.14998
333.14998
333.14996
333.14992
333.14984
333.14968
333.14937
333.14875
333.14745
333.14467
333.13917
333.13041
333.11874
333.10371
333.08039
333.14998
333.14997
333.14995
333.14991
333.14982
333.14965
333.14931
333.14864
333.14723
333.14422
333.13848
333.12964
333.11808
333.10324
333.08019
333.14998
333.14997
333.14995
333.1499
333.1498
333.14962
333.14925
333.14852
333.14698
333.14375
333.13778
333.1289
333.11745
333.10281
333.08001
333.14997
333.14996
333.14994
333.14989
333.14978
333.14958
333.14918
333.14838
333.14671
333.14326
333.13708
333.12817
333.11685
333.10239
333.07984
333.14997
333.14996
333.14993
333.14988
333.14976
333.14954
333.14911
333.14824
333.14643
333.14274
333.13639
333.12747
333.11627
333.10199
333.07969
333.14997
333.14996
333.14993
333.14986
333.14974
333.1495
333.14903
333.14809
333.14612
333.14221
333.1357
333.1268
333.11571
333.10161
333.07954
333.14996
333.14995
333.14992
333.14985
333.14972
333.14946
333.14895
333.14792
333.14579
333.14166
333.13502
333.12614
333.11518
333.10124
333.0794
333.14996
333.14995
333.14991
333.14984
333.14969
333.14941
333.14886
333.14774
333.14544
333.1411
333.13435
333.12551
333.11466
333.10089
333.07927
333.14995
333.14994
333.1499
333.14982
333.14966
333.14936
333.14876
333.14754
333.14507
333.14053
333.1337
333.12489
333.11417
333.10056
333.07915
333.14995
333.14993
333.14989
333.1498
333.14963
333.1493
333.14865
333.14733
333.14468
333.13996
333.13305
333.1243
333.1137
333.10024
333.07904
333.14994
333.14993
333.14988
333.14979
333.1496
333.14924
333.14853
333.1471
333.14427
333.13938
333.13242
333.12373
333.11324
333.09993
333.07893
333.14994
333.14992
333.14987
333.14977
333.14957
333.14918
333.14841
333.14686
333.14384
333.13879
333.1318
333.12317
333.1128
333.09964
333.07883
333.14993
333.14991
333.14986
333.14974
333.14953
333.1491
333.14827
333.14659
333.14339
333.13821
333.1312
333.12263
333.11238
333.09935
333.07874
333.14993
333.1499
333.14984
333.14972
333.14949
333.14903
333.14812
333.14631
333.14293
333.13763
333.13061
333.12211
333.11197
333.09908
333.07865
333.14992
333.14989
333.14983
333.1497
333.14944
333.14894
333.14796
333.14601
333.14246
333.13706
333.13003
333.12161
333.11157
333.09882
333.07857
333.14991
333.14988
333.14981
333.14967
333.14939
333.14885
333.14779
333.14569
333.14198
333.13649
333.12947
333.12112
333.11119
333.09857
333.07849
333.1499
333.14987
333.1498
333.14964
333.14934
333.14875
333.1476
333.14536
333.14149
333.13592
333.12892
333.12064
333.11082
333.09832
333.07842
333.14989
333.14986
333.14978
333.14961
333.14928
333.14865
333.14739
333.145
333.141
333.13537
333.12839
333.12018
333.11046
333.09809
333.07835
333.14988
333.14985
333.14976
333.14958
333.14922
333.14853
333.14718
333.14464
333.1405
333.13482
333.12787
333.11974
333.11012
333.09786
333.07829
333.14987
333.14983
333.14974
333.14954
333.14915
333.14841
333.14694
333.14425
333.14
333.13428
333.12736
333.11931
333.10978
333.09764
333.07823
333.14986
333.14982
333.14971
333.1495
333.14908
333.14827
333.1467
333.14386
333.13949
333.13375
333.12687
333.11889
333.10946
333.09743
333.07817
333.14985
333.1498
333.14969
333.14946
333.149
333.14812
333.14643
333.14345
333.13899
333.13322
333.12638
333.11848
333.10914
333.09723
333.07812
333.14983
333.14978
333.14966
333.14941
333.14892
333.14796
333.14615
333.14304
333.13849
333.13271
333.12591
333.11808
333.10884
333.09703
333.07807
333.14982
333.14976
333.14963
333.14936
333.14882
333.14779
333.14586
333.14261
333.13799
333.13221
333.12545
333.11769
333.10854
333.09684
333.07802
333.1498
333.14974
333.1496
333.1493
333.14872
333.14761
333.14555
333.14218
333.13749
333.13171
333.12501
333.11732
333.10825
333.09665
333.07798
333.14978
333.14972
333.14956
333.14924
333.14861
333.14741
333.14522
333.14174
333.137
333.13123
333.12457
333.11695
333.10797
333.09648
333.07794
333.14976
333.1497
333.14952
333.14917
333.14849
333.1472
333.14488
333.14129
333.13651
333.13075
333.12414
333.1166
333.1077
333.0963
333.0779
333.14974
333.14967
333.14948
333.1491
333.14837
333.14697
333.14453
333.14085
333.13603
333.13029
333.12373
333.11625
333.10744
333.09613
333.07787
333.14972
333.14964
333.14944
333.14903
333.14823
333.14673
333.14417
333.1404
333.13555
333.12983
333.12332
333.11591
333.10718
333.09597
333.07784
333.14969
333.14961
333.14939
333.14894
333.14808
333.14648
333.1438
333.13995
333.13508
333.12938
333.12292
333.11558
333.10693
333.09581
333.07781
333.14967
333.14957
333.14933
333.14885
333.14791
333.14621
333.14342
333.1395
333.13461
333.12894
333.12253
333.11526
333.10668
333.09565
333.07778
333.14964
333.14954
333.14928
333.14875
333.14774
333.14593
333.14303
333.13905
333.13415
333.12851
333.12216
333.11495
333.10644
333.0955
333.07775
333.14961
333.1495
333.14921
333.14864
333.14755
333.14563
333.14264
333.1386
333.1337
333.12809
333.12178
333.11464
333.10621
333.09536
333.07772
333.14957
333.14945
333.14914
333.14852
333.14735
333.14532
333.14224
333.13815
333.13326
333.12768
333.12142
333.11434
333.10598
333.09521
333.0777
333.14953
333.1494
333.14907
333.1484
333.14714
333.145
333.14183
333.13771
333.13282
333.12727
333.12107
333.11405
333.10576
333.09508
333.07768
333.14949
333.14935
333.14898
333.14826
333.14692
333.14467
333.14142
333.13727
333.13238
333.12687
333.12072
333.11376
333.10555
333.09494
333.07766
333.14944
333.14929
333.1489
333.14811
333.14668
333.14433
333.14101
333.13683
333.13196
333.12648
333.12038
333.11348
333.10534
333.09481
333.07764
333.14939
333.14923
333.1488
333.14795
333.14642
333.14398
333.1406
333.1364
333.13154
333.1261
333.12005
333.11321
333.10513
333.09468
333.07762
333.14934
333.14916
333.14869
333.14778
333.14616
333.14363
333.14018
333.13597
333.13112
333.12572
333.11972
333.11294
333.10493
333.09455
333.0776
333.14928
333.14908
333.14858
333.14759
333.14588
333.14326
333.13977
333.13554
333.13072
333.12535
333.1194
333.11268
333.10473
333.09443
333.07758
333.14921
333.149
333.14845
333.14739
333.14559
333.14289
333.13935
333.13512
333.13032
333.12499
333.11909
333.11242
333.10454
333.09431
333.07757
333.14914
333.14891
333.14831
333.14718
333.14529
333.14251
333.13893
333.1347
333.12992
333.12463
333.11878
333.11217
333.10435
333.09419
333.07755
333.14906
333.14881
333.14817
333.14696
333.14497
333.14213
333.13852
333.13429
333.12953
333.12428
333.11848
333.11192
333.10416
333.09408
333.07754
333.14897
333.1487
333.14801
333.14672
333.14465
333.14174
333.13811
333.13388
333.12915
333.12394
333.11818
333.11168
333.10398
333.09397
333.07752
333.14888
333.14858
333.14784
333.14647
333.14432
333.14136
333.1377
333.13348
333.12877
333.1236
333.11789
333.11144
333.1038
333.09386
333.07751
333.14877
333.14845
333.14765
333.14621
333.14398
333.14096
333.13729
333.13308
333.1284
333.12327
333.11761
333.11121
333.10363
333.09375
333.07749
333.14865
333.14831
333.14745
333.14593
333.14363
333.14057
333.13688
333.13268
333.12804
333.12294
333.11733
333.11098
333.10345
333.09364
333.07748
333.14853
333.14815
333.14724
333.14564
333.14327
333.14017
333.13648
333.13229
333.12767
333.12262
333.11705
333.11076
333.10328
333.09354
333.07747
333.14839
333.14799
333.14702
333.14534
333.14291
333.13978
333.13608
333.13191
333.12732
333.12231
333.11678
333.11054
333.10312
333.09343
333.07745
333.14824
333.14781
333.14678
333.14503
333.14254
333.13938
333.13568
333.13153
333.12697
333.122
333.11652
333.11032
333.10296
333.09333
333.07744
333.14807
333.14761
333.14652
333.14471
333.14217
333.13898
333.13528
333.13115
333.12663
333.12169
333.11625
333.11011
333.10279
333.09323
333.07743
333.14789
333.1474
333.14625
333.14438
333.14179
333.13859
333.13489
333.13078
333.12629
333.12139
333.116
333.1099
333.10264
333.09313
333.07741
333.14769
333.14717
333.14597
333.14403
333.14141
333.13819
333.1345
333.13041
333.12595
333.12109
333.11574
333.10969
333.10248
333.09304
333.0774
333.14748
333.14693
333.14567
333.14368
333.14102
333.13779
333.13411
333.13005
333.12562
333.1208
333.11549
333.10949
333.10233
333.09294
333.07739
333.14724
333.14667
333.14536
333.14332
333.14063
333.1374
333.13373
333.12969
333.12529
333.12051
333.11525
333.10929
333.10218
333.09285
333.07737
333.14699
333.14639
333.14504
333.14296
333.14024
333.13701
333.13335
333.12933
333.12497
333.12023
333.11501
333.10909
333.10203
333.09275
333.07736
333.14672
333.1461
333.1447
333.14258
333.13985
333.13661
333.13297
333.12898
333.12466
333.11995
333.11477
333.10889
333.10188
333.09266
333.07734
333.14644
333.14579
333.14435
333.1422
333.13945
333.13622
333.1326
333.12864
333.12434
333.11968
333.11453
333.1087
333.10173
333.09257
333.07733
333.14613
333.14546
333.14399
333.14182
333.13906
333.13583
333.13223
333.1283
333.12403
333.11941
333.1143
333.10851
333.10159
333.09248
333.07731
333.1458
333.14512
333.14362
333.14142
333.13866
333.13544
333.13186
333.12796
333.12373
333.11914
333.11407
333.10833
333.10145
333.09239
333.0773
333.14546
333.14476
333.14324
333.14102
333.13826
333.13506
333.1315
333.12762
333.12343
333.11887
333.11385
333.10814
333.10131
333.0923
333.07728
333.14509
333.14438
333.14284
333.14062
333.13786
333.13467
333.13114
333.12729
333.12313
333.11861
333.11363
333.10796
333.10117
333.09221
333.07727
333.14471
333.14399
333.14244
333.14022
333.13746
333.13429
333.13078
333.12696
333.12284
333.11835
333.11341
333.10778
333.10103
333.09212
333.07725
333.14431
333.14358
333.14203
333.1398
333.13706
333.13391
333.13042
333.12664
333.12254
333.1181
333.11319
333.1076
333.1009
333.09204
333.07723
333.1439
333.14317
333.14161
333.13939
333.13666
333.13353
333.13007
333.12631
333.12226
333.11785
333.11297
333.10742
333.10076
333.09195
333.07721
333.14347
333.14274
333.14118
333.13897
333.13626
333.13315
333.12972
333.126
333.12197
333.1176
333.11276
333.10725
333.10063
333.09186
333.07719
333.14303
333.1423
333.14075
333.13855
333.13585
333.13277
333.12937
333.12568
333.12169
333.11735
333.11255
333.10708
333.1005
333.09178
333.07717
333.14257
333.14185
333.14031
333.13813
333.13545
333.1324
333.12903
333.12537
333.12141
333.1171
333.11234
333.1069
333.10036
333.09169
333.07715
333.1421
333.14139
333.13986
333.1377
333.13505
333.13202
333.12868
333.12506
333.12113
333.11686
333.11213
333.10674
333.10023
333.0916
333.07713
333.14163
333.14092
333.13941
333.13727
333.13465
333.13165
333.12834
333.12475
333.12086
333.11662
333.11193
333.10657
333.1001
333.09152
333.0771
333.14115
333.14044
333.13895
333.13684
333.13425
333.13128
333.128
333.12444
333.12059
333.11639
333.11173
333.1064
333.09997
333.09143
333.07708
333.14066
333.13996
333.1385
333.13641
333.13385
333.13091
333.12767
333.12414
333.12032
333.11615
333.11152
333.10623
333.09985
333.09135
333.07706
333.14016
333.13948
333.13803
333.13598
333.13345
333.13054
333.12733
333.12384
333.12005
333.11592
333.11133
333.10607
333.09972
333.09126
333.07703
333.13966
333.13899
333.13757
333.13554
333.13304
333.13018
333.127
333.12354
333.11979
333.11568
333.11113
333.1059
333.09959
333.09118
333.077
333.13915
333.1385
333.1371
333.13511
333.13264
333.12981
333.12667
333.12324
333.11952
333.11545
333.11093
333.10574
333.09946
333.09109
333.07697
333.13865
333.138
333.13663
333.13467
333.13224
333.12945
333.12634
333.12295
333.11926
333.11522
333.11073
333.10558
333.09934
333.091
333.07694
333.13814
333.13751
333.13616
333.13424
333.13185
333.12908
333.12601
333.12265
333.119
333.115
333.11054
333.10542
333.09921
333.09092
333.07691
333.13763
333.13701
333.1357
333.1338
333.13145
333.12872
333.12569
333.12236
333.11874
333.11477
333.11035
333.10526
333.09908
333.09083
333.07688
333.13712
333.13652
333.13523
333.13337
333.13105
333.12836
333.12536
333.12207
333.11848
333.11455
333.11015
333.1051
333.09896
333.09074
333.07685
333.13661
333.13602
333.13476
333.13293
333.13065
333.128
333.12504
333.12178
333.11823
333.11432
333.10996
333.10494
333.09883
333.09065
333.07681
333.13611
333.13553
333.13429
333.1325
333.13026
333.12764
333.12471
333.12149
333.11797
333.1141
333.10977
333.10478
333.09871
333.09057
333.07677
333.1356
333.13504
333.13383
333.13207
333.12986
333.12729
333.12439
333.12121
333.11772
333.11388
333.10958
333.10462
333.09858
333.09048
333.07674
333.1351
333.13455
333.13336
333.13164
333.12947
333.12693
333.12407
333.12092
333.11747
333.11366
333.10939
333.10446
333.09845
333.09039
333.0767
333.1346
333.13406
333.1329
333.13121
333.12908
333.12658
333.12376
333.12064
333.11722
333.11344
333.1092
333.1043
333.09833
333.0903
333.07666
333.1341
333.13357
333.13244
333.13079
333.12869
333.12622
333.12344
333.12036
333.11697
333.11322
333.10901
333.10415
333.0982
333.0902
333.07661
333.13361
333.13309
333.13198
333.13036
333.1283
333.12587
333.12312
333.12008
333.11672
333.113
333.10883
333.10399
333.09807
333.09011
333.07657
333.13312
333.13262
333.13153
333.12994
333.12792
333.12552
333.12281
333.11979
333.11647
333.11278
333.10864
333.10383
333.09795
333.09002
333.07652
333.13263
333.13214
333.13108
333.12952
333.12753
333.12518
333.1225
333.11952
333.11622
333.11257
333.10845
333.10367
333.09782
333.08992
333.07647
333.13215
333.13167
333.13063
333.12911
333.12715
333.12483
333.12219
333.11924
333.11598
333.11235
333.10826
333.10351
333.09769
333.08983
333.07642
333.13168
333.13121
333.13019
333.12869
333.12677
333.12449
333.12188
333.11896
333.11573
333.11214
333.10808
333.10335
333.09756
333.08973
333.07637
333.13121
333.13075
333.12975
333.12828
333.12639
333.12414
333.12157
333.11868
333.11548
333.11192
333.10789
333.1032
333.09743
333.08963
333.07632
333.13074
333.13029
333.12932
333.12787
333.12602
333.1238
333.12126
333.11841
333.11524
333.1117
333.1077
333.10304
333.0973
333.08953
333.07626
333.13028
333.12984
333.12888
333.12747
333.12565
333.12346
333.12095
333.11813
333.115
333.11149
333.10752
333.10288
333.09717
333.08943
333.0762
333.12982
333.12939
333.12846
333.12707
333.12528
333.12313
333.12065
333.11786
333.11475
333.11127
333.10733
333.10272
333.09704
333.08933
333.07614
333.12937
333.12895
333.12803
333.12667
333.12491
333.12279
333.12035
333.11759
333.11451
333.11106
333.10714
333.10256
333.0969
333.08923
333.07608
333.12893
333.12851
333.12761
333.12628
333.12455
333.12246
333.12004
333.11732
333.11427
333.11085
333.10695
333.1024
333.09677
333.08912
333.07601
333.12849
333.12808
333.1272
333.12589
333.12419
333.12213
333.11974
333.11705
333.11403
333.11063
333.10677
333.10223
333.09663
333.08902
333.07595
333.12805
333.12765
333.12679
333.1255
333.12383
333.1218
333.11945
333.11678
333.11379
333.11042
333.10658
333.10207
333.0965
333.08891
333.07588
333.12762
333.12723
333.12638
333.12512
333.12347
333.12147
333.11915
333.11651
333.11355
333.11021
333.10639
333.10191
333.09636
333.0888
333.07581
333.12719
333.12681
333.12598
333.12474
333.12312
333.12115
333.11885
333.11624
333.11331
333.10999
333.1062
333.10175
333.09622
333.08869
333.07573
333.12677
333.1264
333.12558
333.12436
333.12277
333.12083
333.11856
333.11598
333.11307
333.10978
333.10602
333.10158
333.09608
333.08858
333.07566
333.12636
333.12599
333.12519
333.12399
333.12242
333.12051
333.11827
333.11571
333.11283
333.10957
333.10583
333.10142
333.09595
333.08846
333.07558
333.12595
333.12559
333.1248
333.12362
333.12208
333.12019
333.11798
333.11545
333.11259
333.10935
333.10564
333.10125
333.0958
333.08835
333.0755
333.12554
333.12519
333.12442
333.12326
333.12173
333.11987
333.11769
333.11519
333.11235
333.10914
333.10545
333.10109
333.09566
333.08823
333.07542
333.12514
333.1248
333.12404
333.1229
333.1214
333.11956
333.1174
333.11493
333.11212
333.10893
333.10526
333.10092
333.09552
333.08811
333.07533
333.12475
333.12441
333.12366
333.12254
333.12106
333.11925
333.11711
333.11466
333.11188
333.10872
333.10507
333.10076
333.09537
333.08799
333.07524
333.12436
333.12402
333.12329
333.12219
333.12073
333.11894
333.11683
333.11441
333.11165
333.10851
333.10488
333.10059
333.09523
333.08787
333.07515
333.12397
333.12364
333.12292
333.12183
333.1204
333.11863
333.11655
333.11415
333.11141
333.10829
333.10469
333.10042
333.09508
333.08775
333.07506
333.12359
333.12327
333.12256
333.12149
333.12007
333.11833
333.11627
333.11389
333.11118
333.10808
333.1045
333.10025
333.09493
333.08762
333.07497
333.12322
333.1229
333.1222
333.12114
333.11975
333.11803
333.11599
333.11363
333.11094
333.10787
333.10431
333.10008
333.09478
333.0875
333.07487
333.12285
333.12253
333.12184
333.1208
333.11943
333.11773
333.11571
333.11338
333.11071
333.10766
333.10412
333.09991
333.09463
333.08737
333.07477
333.12248
333.12217
333.12149
333.12047
333.11911
333.11743
333.11544
333.11313
333.11048
333.10745
333.10393
333.09974
333.09448
333.08724
333.07467
333.12212
333.12181
333.12115
333.12014
333.11879
333.11713
333.11516
333.11287
333.11025
333.10724
333.10374
333.09957
333.09433
333.08711
333.07457
333.12176
333.12146
333.1208
333.11981
333.11848
333.11684
333.11489
333.11262
333.11002
333.10703
333.10355
333.0994
333.09418
333.08698
333.07446
333.12141
333.12111
333.12046
333.11948
333.11817
333.11655
333.11462
333.11237
333.10979
333.10682
333.10336
333.09922
333.09402
333.08684
333.07436
333.12106
333.12077
333.12013
333.11916
333.11787
333.11626
333.11435
333.11212
333.10956
333.1066
333.10316
333.09905
333.09387
333.0867
333.07425
333.12071
333.12042
333.11979
333.11884
333.11756
333.11598
333.11408
333.11187
333.10933
333.10639
333.10297
333.09887
333.09371
333.08657
333.07414
333.12037
333.12009
333.11946
333.11852
333.11726
333.11569
333.11382
333.11163
333.1091
333.10618
333.10278
333.0987
333.09355
333.08643
333.07402
333.12003
333.11975
333.11914
333.11821
333.11696
333.11541
333.11355
333.11138
333.10887
333.10597
333.10259
333.09852
333.09339
333.08629
333.07391
333.1197
333.11942
333.11882
333.1179
333.11667
333.11513
333.11329
333.11114
333.10864
333.10576
333.10239
333.09834
333.09323
333.08615
333.07379
333.11937
333.1191
333.1185
333.11759
333.11637
333.11485
333.11303
333.11089
333.10842
333.10555
333.1022
333.09817
333.09307
333.086
333.07367
333.11904
333.11877
333.11818
333.11728
333.11608
333.11458
333.11277
333.11065
333.10819
333.10534
333.10201
333.09799
333.09291
333.08586
333.07355
333.11872
333.11846
333.11787
333.11698
333.11579
333.1143
333.11251
333.11041
333.10797
333.10513
333.10181
333.09781
333.09275
333.08571
333.07342
333.1184
333.11814
333.11756
333.11668
333.11551
333.11403
333.11225
333.11017
333.10774
333.10492
333.10162
333.09763
333.09258
333.08556
333.0733
333.11809
333.11783
333.11726
333.11639
333.11522
333.11376
333.112
333.10993
333.10752
333.10472
333.10142
333.09745
333.09242
333.08541
333.07317
333.11777
333.11752
333.11695
333.11609
333.11494
333.11349
333.11174
333.10969
333.10729
333.10451
333.10123
333.09727
333.09225
333.08526
333.07304
333.11747
333.11721
333.11665
333.1158
333.11466
333.11323
333.11149
333.10945
333.10707
333.1043
333.10103
333.09709
333.09208
333.08511
333.07291
333.11716
333.11691
333.11636
333.11552
333.11438
333.11296
333.11124
333.10921
333.10685
333.10409
333.10084
333.09691
333.09192
333.08496
333.07278
333.11686
333.11661
333.11606
333.11523
333.11411
333.1127
333.11099
333.10898
333.10662
333.10388
333.10064
333.09673
333.09175
333.0848
333.07264
333.11656
333.11631
333.11577
333.11495
333.11384
333.11244
333.11074
333.10874
333.1064
333.10367
333.10045
333.09654
333.09158
333.08465
333.07251
333.11626
333.11602
333.11548
333.11467
333.11357
333.11218
333.1105
333.10851
333.10618
333.10346
333.10025
333.09636
333.09141
333.08449
333.07237
333.11597
333.11573
333.1152
333.11439
333.1133
333.11192
333.11025
333.10827
333.10596
333.10325
333.10006
333.09618
333.09123
333.08434
333.07223
333.11568
333.11544
333.11491
333.11411
333.11303
333.11166
333.11001
333.10804
333.10574
333.10305
333.09986
333.09599
333.09106
333.08418
333.07209
333.11539
333.11515
333.11463
333.11384
333.11276
333.11141
333.10976
333.10781
333.10552
333.10284
333.09966
333.09581
333.09089
333.08402
333.07195
333.1151
333.11487
333.11436
333.11357
333.1125
333.11116
333.10952
333.10758
333.1053
333.10263
333.09947
333.09562
333.09072
333.08386
333.07181
333.11482
333.11459
333.11408
333.1133
333.11224
333.1109
333.10928
333.10735
333.10508
333.10242
333.09927
333.09543
333.09054
333.08369
333.07166
333.11454
333.11431
333.11381
333.11303
333.11198
333.11065
333.10904
333.10712
333.10486
333.10222
333.09907
333.09525
333.09037
333.08353
333.07152
333.11426
333.11404
333.11353
333.11277
333.11172
333.11041
333.1088
333.10689
333.10465
333.10201
333.09888
333.09506
333.09019
333.08337
333.07137
333.11399
333.11376
333.11327
333.1125
333.11147
333.11016
333.10856
333.10666
333.10443
333.1018
333.09868
333.09487
333.09001
333.0832
333.07122
333.11372
333.11349
333.113
333.11224
333.11121
333.10991
333.10833
333.10644
333.10421
333.10159
333.09848
333.09469
333.08984
333.08304
333.07107
333.11345
333.11322
333.11273
333.11198
333.11096
333.10967
333.10809
333.10621
333.104
333.10139
333.09828
333.0945
333.08966
333.08287
333.07092
333.11318
333.11296
333.11247
333.11172
333.11071
333.10943
333.10786
333.10599
333.10378
333.10118
333.09809
333.09431
333.08948
333.0827
333.07077
333.11291
333.11269
333.11221
333.11147
333.11046
333.10918
333.10762
333.10576
333.10356
333.10097
333.09789
333.09412
333.0893
333.08253
333.07061
333.11265
333.11243
333.11195
333.11121
333.11021
333.10894
333.10739
333.10554
333.10335
333.10077
333.09769
333.09393
333.08912
333.08236
333.07046
333.11239
333.11217
333.11169
333.11096
333.10997
333.10871
333.10716
333.10531
333.10313
333.10056
333.09749
333.09374
333.08894
333.08219
333.0703
333.11213
333.11191
333.11144
333.11071
333.10972
333.10847
333.10693
333.10509
333.10292
333.10035
333.09729
333.09355
333.08876
333.08202
333.07015
333.11187
333.11166
333.11119
333.11046
333.10948
333.10823
333.1067
333.10487
333.1027
333.10015
333.0971
333.09336
333.08858
333.08185
333.06999
333.11161
333.1114
333.11093
333.11021
333.10924
333.10799
333.10647
333.10465
333.10249
333.09994
333.0969
333.09317
333.08839
333.08168
333.06983
333.11136
333.11115
333.11068
333.10997
333.109
333.10776
333.10624
333.10443
333.10228
333.09973
333.0967
333.09298
333.08821
333.08151
333.06967
333.11111
333.1109
333.11043
333.10972
333.10876
333.10753
333.10602
333.10421
333.10206
333.09953
333.0965
333.09279
333.08803
333.08133
333.06951
333.11085
333.11065
333.11019
333.10948
333.10852
333.10729
333.10579
333.10399
333.10185
333.09932
333.0963
333.0926
333.08785
333.08116
333.06935
333.11061
333.1104
333.10994
333.10924
333.10828
333.10706
333.10556
333.10377
333.10164
333.09912
333.0961
333.09241
333.08766
333.08098
333.06918
333.11036
333.11015
333.1097
333.109
333.10805
333.10683
333.10534
333.10355
333.10143
333.09891
333.0959
333.09222
333.08748
333.08081
333.06902
333.11011
333.10991
333.10946
333.10876
333.10781
333.1066
333.10512
333.10333
333.10121
333.09871
333.0957
333.09202
333.08729
333.08063
333.06886
333.10987
333.10966
333.10921
333.10852
333.10758
333.10637
333.10489
333.10311
333.101
333.0985
333.09551
333.09183
333.08711
333.08046
333.06869
333.10962
333.10942
333.10897
333.10828
333.10735
333.10615
333.10467
333.1029
333.10079
333.0983
333.09531
333.09164
333.08692
333.08028
333.06852
333.10938
333.10918
333.10874
333.10805
333.10711
333.10592
333.10445
333.10268
333.10058
333.09809
333.09511
333.09145
333.08674
333.0801
333.06836
333.10914
333.10894
333.1085
333.10781
333.10688
333.10569
333.10423
333.10246
333.10037
333.09789
333.09491
333.09125
333.08655
333.07992
333.06819
333.1089
333.1087
333.10826
333.10758
333.10665
333.10547
333.10401
333.10225
333.10016
333.09768
333.09471
333.09106
333.08636
333.07974
333.06802
333.10867
333.10847
333.10803
333.10735
333.10642
333.10524
333.10379
333.10203
333.09995
333.09748
333.09451
333.09087
333.08618
333.07957
333.06785
333.10843
333.10823
333.10779
333.10712
333.1062
333.10502
333.10357
333.10182
333.09974
333.09727
333.09431
333.09067
333.08599