/*--------------------------------*- C++ -*----------------------------------*\
| =========                 |                                                 |
| \\      /  F ield         | OpenFOAM: The Open Source CFD Toolbox           |
|  \\    /   O peration     | Version:  2506                                  |
|   \\  /    A nd           | Website:  www.openfoam.com                      |
|    \\/     M anipulation  |                                                 |
\*---------------------------------------------------------------------------*/
FoamFile
{
    version     2.0;
    format      ascii;
    arch        "LSB;label=32;scalar=64";
    class       volVectorField;
    location    "16000/water";
    object      U;
}
// * * * * * * * * * * * * * * * * * * * * * * * * * * * * * * * * * * * * * //

dimensions      [0 1 -1 0 0 0 0];

internalField   nonuniform List<vector> 
6000
(
(0.25028648 -3.4193492e-05 -1.2346114e-18)
(0.25028875 -7.4648812e-05 -4.4604099e-18)
(0.25029344 -0.00011804414 4.8500771e-19)
(0.25030059 -0.00016540046 -2.0392467e-19)
(0.25031046 -0.00021487336 7.2244115e-20)
(0.25032332 -0.00026685039 1.6044626e-19)
(0.25033948 -0.00032192175 3.9774784e-20)
(0.25035939 -0.00038078672 1.608953e-19)
(0.25038356 -0.00044434477 1.1905916e-19)
(0.25041254 -0.00051362452 1.7068203e-19)
(0.25044587 -0.0005867756 1.4274091e-19)
(0.25047643 -0.00065822056 -3.3023519e-20)
(0.25046276 -0.00078466513 -4.9785381e-20)
(0.25013031 -0.0015987837 -1.4715352e-19)
(0.24584996 0.0019968142 -1.3254415e-19)
(0.25104035 -3.7261304e-05 -5.9189008e-19)
(0.25104514 -8.9895979e-05 -1.2020643e-18)
(0.2510558 -0.00014352114 8.9614911e-19)
(0.25107219 -0.00020025424 4.8209091e-20)
(0.2510947 -0.0002571822 1.1846929e-18)
(0.25112368 -0.00031440571 4.4914666e-19)
(0.25115965 -0.00037188242 -2.5768429e-19)
(0.25120324 -0.00042947839 -3.810923e-20)
(0.2512551 -0.00048709454 -2.0817465e-20)
(0.25131538 -0.00054561245 3.4227933e-19)
(0.25138039 -0.00060405492 2.3081936e-19)
(0.25142587 -0.00063755821 -1.4648451e-19)
(0.25133175 -0.00059164843 -9.5237547e-20)
(0.25037931 -0.0014370973 -7.2068342e-20)
(0.24194277 0.00099520264 -1.2573947e-19)
(0.25195051 -3.6589028e-05 -1.7921711e-18)
(0.25195563 -9.0250613e-05 4.0626622e-18)
(0.25196731 -0.00014313025 1.3067851e-18)
(0.25198528 -0.00019912655 -7.3566733e-19)
(0.25200977 -0.00025508716 9.000886e-19)
(0.25204101 -0.0003112558 -4.6947743e-19)
(0.25207932 -0.00036762123 -1.0653265e-18)
(0.25212505 -0.00042413945 -8.1964981e-19)
(0.25217823 -0.00048056787 -6.492585e-19)
(0.25223708 -0.0005377572 3.7212997e-20)
(0.25229114 -0.00060007155 -2.6370249e-19)
(0.25229033 -0.00065419843 -6.3110382e-19)
(0.25200573 -0.00054460881 -2.7855461e-19)
(0.25014357 -0.0012195308 -1.4796271e-19)
(0.23758495 0.00043820543 -1.7045844e-19)
(0.25283353 -3.7446604e-05 4.7749314e-19)
(0.25283867 -9.3611088e-05 5.1036927e-19)
(0.25285018 -0.00014906892 5.3257741e-19)
(0.25286783 -0.00020791578 5.0132575e-20)
(0.25289182 -0.00026672308 3.5343809e-19)
(0.25292238 -0.00032582165 -4.6821891e-19)
(0.25295982 -0.00038519269 -5.7238589e-19)
(0.25300432 -0.00044485276 -4.6333818e-19)
(0.25305525 -0.00050441426 -2.9975882e-19)
(0.25310809 -0.00056332944 2.6524619e-19)
(0.25314261 -0.00062607506 -2.7472913e-19)
(0.25307635 -0.00069910336 -4.2566317e-19)
(0.25255493 -0.0005845712 -1.620803e-19)
(0.24963188 -0.001063787 -1.8784452e-19)
(0.23320285 0.0001058672 -1.7838761e-19)
(0.25372643 -3.8342944e-05 1.2029505e-17)
(0.2537317 -9.6368691e-05 3.0395099e-18)
(0.25374347 -0.00015372841 1.8692547e-18)
(0.25376156 -0.00021453144 1.3515238e-18)
(0.25378616 -0.00027516439 1.2682368e-19)
(0.25381749 -0.00033599427 1.0140935e-19)
(0.25385581 -0.00039694563 -6.2753172e-20)
(0.25390101 -0.00045805575 2.5260655e-19)
(0.25395133 -0.00051907431 4.4551381e-19)
(0.25399821 -0.00057855465 2.0943264e-19)
(0.25400834 -0.00063773998 2.0989732e-20)
(0.25386022 -0.0007177221 -5.4860069e-20)
(0.25305737 -0.00062191547 1.0195753e-19)
(0.24895451 -0.00093835859 -3.0751238e-20)
(0.22897365 -8.3792338e-05 -9.0162056e-20)
(0.25464474 -3.8661619e-05 3.0462744e-18)
(0.25465014 -9.7320119e-05 -7.3724633e-19)
(0.2546622 -0.00015516462 1.1661702e-18)
(0.25468073 -0.00021648308 9.2646742e-19)
(0.2547059 -0.00027758564 -3.6529962e-19)
(0.25473792 -0.000338881 7.3122046e-21)
(0.25477689 -0.00040025681 -1.6542068e-19)
(0.25482222 -0.000461728 1.7626539e-19)
(0.25487049 -0.00052322808 1.3460487e-19)
(0.2549078 -0.000583188 1.6507326e-19)
(0.25488519 -0.00063896641 -1.2636802e-19)
(0.25463685 -0.00071821651 -2.4219692e-19)
(0.25350729 -0.0006469875 -5.2536031e-20)
(0.248129 -0.00083894719 -1.1246797e-19)
(0.2249409 -0.00018589273 -1.4953729e-19)
(0.25557031 -3.8595293e-05 -5.0501478e-18)
(0.25557581 -9.7309347e-05 -3.2842737e-18)
(0.25558805 -0.00015511983 -8.6755698e-19)
(0.25560682 -0.00021642526 7.2539631e-19)
(0.2556323 -0.00027749359 -3.4701423e-19)
(0.25566463 -0.00033876345 4.9465514e-19)
(0.25570371 -0.00040009734 2.6403633e-19)
(0.25574825 -0.00046144626 -1.1788476e-19)
(0.25579256 -0.00052279714 7.3709318e-20)
(0.25581623 -0.0005828814 3.5497832e-19)
(0.25575267 -0.00063600478 1.5009728e-19)
(0.25538743 -0.00071016267 7.3454368e-20)
(0.25388915 -0.00066107344 -2.2589498e-20)
(0.24716598 -0.00076077854 -1.0360193e-19)
(0.22112141 -0.00023459296 -1.3859953e-19)
(0.25649134 -3.8297106e-05 2.4833562e-18)
(0.25649692 -9.6712129e-05 1.2817062e-18)
(0.25650928 -0.00015419069 1.7079831e-18)
(0.25652824 -0.00021515485 3.5859569e-19)
(0.25655393 -0.00027585718 -2.7141537e-19)
(0.25658641 -0.0003367553 4.5973496e-19)
(0.25662528 -0.00039769653 7.9673931e-20)
(0.2566683 -0.00045856441 -2.575444e-19)
(0.25670691 -0.00051927104 9.9341368e-20)
(0.25671305 -0.00057893859 -1.2887607e-19)
(0.25660095 -0.00063003278 1.5070186e-19)
(0.25610359 -0.00069722485 2.2199644e-19)
(0.25419746 -0.0006651972 3.3000547e-20)
(0.24608527 -0.00069788903 -5.1619027e-20)
(0.21752738 -0.00025081848 4.4642055e-20)
(0.25740382 -3.7852859e-05 5.270286e-19)
(0.25740947 -9.5689494e-05 -1.5748621e-18)
(0.25742193 -0.00015257331 9.4660525e-19)
(0.25744104 -0.00021291358 9.6730399e-19)
(0.25746687 -0.00027297291 1.8833673e-19)
(0.25749936 -0.0003332193 1.4812681e-19)
(0.2575377 -0.00039348924 2.2500303e-19)
(0.2575784 -0.00045361302 2.8216499e-20)
(0.25760945 -0.00051335259 1.0094799e-19)
(0.25759421 -0.00057212213 -2.3849561e-20)
(0.25742635 -0.00062159363 -7.4179128e-20)
(0.25678237 -0.00068144217 7.2081051e-20)
(0.25443121 -0.00066103685 -6.2787239e-20)
(0.24490935 -0.00064561644 -1.777007e-20)
(0.21416513 -0.00024776584 6.017387e-20)
(0.25830515 -3.7308638e-05 3.4448786e-18)
(0.25831084 -9.4372769e-05 4.7303448e-19)
(0.25832339 -0.00015047649 -8.607864e-19)
(0.2583426 -0.00020999612 5.6412211e-19)
(0.25836849 -0.00026922145 -1.8669287e-19)
(0.25840083 -0.00032862339 9.7694699e-21)
(0.25843826 -0.00038802595 2.8651508e-19)
(0.25847573 -0.00044722018 2.0960656e-20)
(0.25849727 -0.00050579279 2.4998733e-19)
(0.25845683 -0.00056328987 -1.1265552e-19)
(0.25822634 -0.00061131675 1.4799799e-19)
(0.25742154 -0.00066417743 1.1839568e-19)
(0.2545896 -0.00065044234 3.6634298e-20)
(0.24365871 -0.00060064453 -4.4929336e-20)
(0.21103455 -0.00023378679 -9.373374e-20)
(0.259193 -3.669388e-05 5.1148287e-18)
(0.25919873 -9.285746e-05 5.9264381e-18)
(0.25921134 -0.00014806165 -1.4256818e-18)
(0.25923061 -0.00020663289 1.5961807e-19)
(0.25925648 -0.0002648995 1.137257e-18)
(0.25928848 -0.00032332972 2.3792683e-19)
(0.25932457 -0.00038173097 8.4730435e-20)
(0.25935785 -0.00043986308 2.0575856e-19)
(0.25936788 -0.00049714489 1.8439592e-20)
(0.25929853 -0.00055310431 -2.6176581e-19)
(0.2589988 -0.00059970361 2.522957e-19)
(0.25801896 -0.00064623361 1.1469006e-19)
(0.25467145 -0.00063499349 4.6294113e-20)
(0.24235144 -0.00056062195 -3.0712117e-20)
(0.20813123 -0.0002141088 -4.4740874e-20)
(0.26006576 -3.6034055e-05 2.2050779e-18)
(0.26007152 -9.1214285e-05 3.0371088e-18)
(0.26008417 -0.00014544281 -5.4642555e-19)
(0.26010346 -0.00020298347 9.6042398e-20)
(0.26012923 -0.00026021093 4.7494389e-19)
(0.2601607 -0.0003175869 2.6237567e-19)
(0.26019497 -0.00037489796 1.0346505e-19)
(0.26022303 -0.0004318747 4.4292617e-19)
(0.26021952 -0.00048779067 1.178472e-19)
(0.26011767 -0.00054204301 -1.246323e-19)
(0.25974224 -0.00058714002 1.3645102e-19)
(0.25857279 -0.00062806077 1.0634711e-19)
(0.25467557 -0.00061594005 2.8167136e-20)
(0.24100379 -0.00052390611 -2.0011916e-20)
(0.20544863 -0.00019196316 -7.0909554e-21)
(0.2609225 -3.5349633e-05 3.9463485e-18)
(0.26092828 -8.9497286e-05 2.8222685e-18)
(0.26094096 -0.00014270541 -1.1390034e-19)
(0.26096023 -0.00019916671 1.8046365e-19)
(0.2609858 -0.00025530722 4.9102357e-19)
(0.2610165 -0.00031157922 4.8993648e-19)
(0.26104844 -0.00036774517 3.7038705e-19)
(0.2610702 -0.00042350433 4.4005267e-19)
(0.26105114 -0.00047801113 2.9672299e-19)
(0.26091327 -0.00053046086 -3.7070665e-20)
(0.2604557 -0.00057393662 6.2828062e-20)
(0.2590814 -0.00060990566 5.1220487e-20)
(0.2546009 -0.00059424331 7.4332739e-20)
(0.23963056 -0.00048937354 -1.7927115e-20)
(0.20297926 -0.00016931833 -3.6327198e-20)
(0.26176274 -3.4655538e-05 3.8376887e-18)
(0.26176854 -8.7746856e-05 2.870783e-18)
(0.26178122 -0.00013991377 -5.8786457e-19)
(0.26180042 -0.00019527247 5.1800775e-19)
(0.26182568 -0.00025030306 5.955904e-19)
(0.26185536 -0.00030544608 7.4293248e-19)
(0.26188442 -0.00036043768 5.9109228e-19)
(0.26189878 -0.00041494196 3.9735869e-19)
(0.26186213 -0.00046801763 1.6207078e-19)
(0.2616848 -0.00051862213 4.5731179e-20)
(0.26113855 -0.00056034346 1.179014e-19)
(0.25954316 -0.00059189152 5.9184042e-21)
(0.25444651 -0.0005706321 4.1745045e-20)
(0.23824529 -0.00045627776 -3.5135553e-22)
(0.20071509 -0.00014735259 -2.979058e-20)
(0.26258633 -3.3963061e-05 1.9164286e-18)
(0.26259213 -8.5993781e-05 8.2680873e-19)
(0.26260479 -0.00013711719 2.9926963e-18)
(0.26262388 -0.00019136968 6.919563e-19)
(0.2626487 -0.00024528655 -1.278509e-18)
(0.26267708 -0.00029929459 2.1254286e-19)
(0.26270267 -0.00035310243 2.7613602e-19)
(0.26270848 -0.00040633486 2.5883558e-19)
(0.26265224 -0.00045797299 2.1192141e-19)
(0.26243199 -0.00050672606 5.4561545e-20)
(0.26179026 -0.00054656345 1.7544616e-19)
(0.25995633 -0.0005740675 1.1145504e-19)
(0.25421177 -0.00054566294 1.3412604e-19)
(0.23686046 -0.00042415214 -9.1542738e-21)
(0.19864765 -0.0001267576 -3.0797413e-20)
(0.26339335 -3.3281401e-05 2.3802931e-18)
(0.26339915 -8.4262742e-05 5.4129512e-18)
(0.26341177 -0.0001343551 2.3501904e-18)
(0.26343068 -0.0001875135 9.5365634e-19)
(0.26345493 -0.00024032822 1.331172e-18)
(0.26348171 -0.00029321054 1.7550043e-19)
(0.2635032 -0.00034584107 5.0284011e-19)
(0.2634993 -0.00039780175 1.1496074e-19)
(0.26342146 -0.00044800829 3.0279835e-19)
(0.26315482 -0.00049492779 2.079253e-19)
(0.26241041 -0.00053276478 1.6516057e-19)
(0.26031893 -0.00055643964 1.5153991e-19)
(0.2538966 -0.000519773 1.1642351e-19)
(0.23548766 -0.00039274464 4.3726948e-20)
(0.19676807 -0.00010792878 -5.0468677e-20)
(0.26418413 -3.2618313e-05 3.0541785e-18)
(0.26418991 -8.2574227e-05 4.1747215e-18)
(0.26420246 -0.00013166021 9.0331253e-19)
(0.26422112 -0.0001837496 1.2224725e-18)
(0.26424465 -0.00023548649 1.464527e-18)
(0.2642695 -0.00028726512 4.3425228e-19)
(0.26428624 -0.00033873796 7.4175646e-19)
(0.26427145 -0.00038944152 3.4550914e-19)
(0.26416998 -0.0004382328 2.0172342e-19)
(0.26385341 -0.00048335173 2.0687359e-19)
(0.26299854 -0.00051908846 1.3559345e-19)
(0.26062878 -0.00053898816 2.1249577e-19)
(0.25350187 -0.00049331965 1.0883988e-19)
(0.2341376 -0.00036197184 1.6350278e-19)
(0.19506692 -9.1079356e-05 3.6273483e-20)
(0.26495914 -3.1980325e-05 2.3228923e-18)
(0.2649649 -8.0945389e-05 3.7174737e-18)
(0.26497734 -0.00012905989 2.2797514e-18)
(0.26499568 -0.00018011622 1.207877e-18)
(0.26501831 -0.00023081031 1.2464062e-18)
(0.26504088 -0.00028151807 6.3861185e-19)
(0.2650522 -0.00033186392 3.3067399e-19)
(0.2650253 -0.00038133727 5.3622187e-19)
(0.26489816 -0.00042873842 2.7503418e-19)
(0.26452796 -0.00047209828 3.2670588e-19)
(0.26355413 -0.00050565096 8.8666116e-20)
(0.2608835 -0.00052167636 2.0082715e-19)
(0.25302971 -0.00046660631 1.4247533e-19)
(0.23282016 -0.00033188327 1.553034e-19)
(0.19353413 -7.6303786e-05 9.2817759e-20)
(0.26571903 -3.1372765e-05 3.8537017e-18)
(0.26572475 -7.9390279e-05 4.0354255e-18)
(0.26573705 -0.00012657658 1.5737421e-18)
(0.26575498 -0.00017664472 6.3957958e-19)
(0.26577653 -0.00022633987 9.4361391e-19)
(0.26579644 -0.0002760185 8.5487805e-19)
(0.26580163 -0.0003252772 1.7672729e-19)
(0.26576141 -0.00037355728 3.6799466e-19)
(0.26560652 -0.00041960061 2.9051108e-19)
(0.26517878 -0.00046124612 2.9431157e-19)
(0.26407657 -0.00049254343 1.1232894e-19)
(0.26108058 -0.00050445572 1.4241882e-19)
(0.25248384 -0.00043989699 1.526504e-19)
(0.23154421 -0.00030262987 8.6503126e-20)
(0.19215888 -6.3609732e-05 -6.44514e-21)
(0.26646455 -3.0799673e-05 6.3043028e-18)
(0.26647021 -7.7919711e-05 1.0527737e-18)
(0.26648233 -0.00012422759 4.2661618e-18)
(0.26649975 -0.0001733593 2.0962509e-18)
(0.26652002 -0.00022210618 -6.1307459e-19)
(0.26653688 -0.0002708044 1.6766108e-18)
(0.26653522 -0.00031902283 1.3041755e-18)
(0.26648042 -0.00036615421 1.0232589e-18)
(0.26629564 -0.00041087723 6.6437084e-19)
(0.26580617 -0.00045085191 -1.0156222e-19)
(0.26456508 -0.00047982866 5.041677e-19)
(0.26121753 -0.00048726982 4.5417173e-19)
(0.25186982 -0.00041342264 3.673034e-19)
(0.23031742 -0.00027443217 2.444299e-19)
(0.1909297 -5.2932834e-05 1.6764997e-19)
(0.26719653 -3.0263687e-05 1.810941e-18)
(0.26720212 -7.6541023e-05 -1.0063897e-18)
(0.26721401 -0.00012202465 3.0228716e-18)
(0.26723083 -0.00017027641 2.0617549e-18)
(0.2672496 -0.00021813034 1.1683211e-18)
(0.26726299 -0.00026590165 1.2692261e-18)
(0.26725373 -0.0003131315 1.4175699e-18)
(0.26718309 -0.00035916374 8.6771255e-19)
(0.26696618 -0.00040260692 5.7379048e-19)
(0.26641044 -0.00044094906 1.5690508e-19)
(0.26501868 -0.00046753759 4.1750319e-19)
(0.26129202 -0.00047005901 4.1083228e-19)
(0.25119506 -0.00038738325 3.3399088e-19)
(0.2291461 -0.00024754677 2.6688171e-19)
(0.18983455 -4.4145099e-05 2.5487559e-19)
(0.26791589 -2.9765992e-05 -1.7943558e-18)
(0.26792138 -7.5257933e-05 6.8135008e-19)
(0.26793299 -0.00011997377 1.1045044e-19)
(0.26794908 -0.00016740448 5.310568e-19)
(0.26796613 -0.00021442313 2.1021749e-18)
(0.26797562 -0.00026132351 2.002935e-19)
(0.267958 -0.00030761887 3.9835997e-19)
(0.26787018 -0.00035260382 2.2782129e-19)
(0.2676188 -0.00039480805 -4.0259707e-21)
(0.2669918 -0.00043154706 7.5248012e-20)
(0.26543617 -0.00045566687 5.108218e-20)
(0.2613021 -0.00045276643 1.6989338e-19)
(0.2504687 -0.00036194908 1.7945465e-19)
(0.22803501 -0.00022223217 1.1302176e-19)
(0.18886112 -3.7064086e-05 1.4382431e-19)
(0.26862352 -2.9306383e-05 4.5622246e-18)
(0.2686289 -7.4070661e-05 2.229425e-18)
(0.26864017 -0.00011807533 1.5150491e-18)
(0.26865542 -0.00016474412 2.5064174e-18)
(0.26867049 -0.00021098533 1.697105e-18)
(0.26867563 -0.000257071 1.3782825e-18)
(0.26864885 -0.00030248606 1.0097007e-18)
(0.26854251 -0.00034647515 1.1034522e-18)
(0.26825414 -0.00038747924 5.859559e-19)
(0.26755035 -0.00042263245 -1.8644978e-19)
(0.2658161 -0.00044417905 4.153644e-19)
(0.26124652 -0.00043534493 4.0904025e-19)
(0.24970133 -0.00033726333 3.6953973e-19)
(0.22698727 -0.00019871676 3.1706159e-19)
(0.18799711 -3.1466399e-05 2.8751697e-19)
(0.26932033 -2.8883461e-05 4.0121203e-18)
(0.26932558 -7.2976356e-05 -4.5640659e-19)
(0.26933645 -0.00011632481 4.6171574e-19)
(0.26935072 -0.00016228909 2.8534711e-18)
(0.26936357 -0.0002078089 1.5736575e-18)
(0.26936389 -0.00025313433 1.4101199e-18)
(0.26932713 -0.0002977213 1.2971795e-18)
(0.26920083 -0.00034076321 1.1169588e-18)
(0.2688728 -0.00038060158 8.1257314e-19)
(0.26808605 -0.00041417146 3.9486692e-19)
(0.26615679 -0.00043300583 3.9962343e-19)
(0.26112496 -0.00041776402 3.2036632e-19)
(0.24890441 -0.00031344658 3.5129564e-19)
(0.22600436 -0.00017717261 4.0075675e-19)
(0.18723056 -2.7105586e-05 2.854151e-19)
(0.27000719 -2.849491e-05 4.6795247e-18)
(0.27001228 -7.1969743e-05 3.8092514e-18)
(0.27002267 -0.00011471384 3.5506953e-18)
(0.27003582 -0.00016002771 2.7500191e-18)
(0.27004618 -0.00020487885 7.5417079e-19)
(0.27004119 -0.00024949516 1.5906396e-18)
(0.2699936 -0.00029330262 1.4911854e-18)
(0.26984584 -0.00033544136 1.2804751e-18)
(0.26947524 -0.00037414208 9.6518711e-19)
(0.2685986 -0.00040611399 4.9497778e-19)
(0.26645635 -0.00042205446 4.596308e-19)
(0.2609383 -0.00040001524 4.0267179e-19)
(0.24808975 -0.00029060213 4.2153205e-19)
(0.22508629 -0.00015769827 5.0007797e-19)
(0.18655015 -2.3732129e-05 2.7642541e-19)
(0.27068489 -2.8137825e-05 6.1711748e-18)
(0.2706898 -7.1043906e-05 3.6901612e-18)
(0.27069965 -0.00011323138 5.7748861e-18)
(0.27071153 -0.00015794462 3.3862199e-18)
(0.2707191 -0.00020217545 1.2444124e-18)
(0.27070829 -0.00024612933 2.4091059e-18)
(0.27064898 -0.00028920108 2.165208e-18)
(0.27047818 -0.00033047455 2.0168668e-18)
(0.27006181 -0.00036805783 1.1714487e-18)
(0.26908753 -0.00039839812 1.7016669e-19)
(0.26671278 -0.00041121648 6.7467408e-19)
(0.26068881 -0.00038211515 7.8242214e-19)
(0.24726882 -0.00026882041 7.0860769e-19)
(0.22423175 -0.00014031231 5.6135096e-19)
(0.18594537 -2.1112146e-05 4.2142732e-19)
(0.27135418 -2.7809011e-05 1.1486285e-18)
(0.27135887 -7.0191041e-05 3.6498621e-18)
(0.2713681 -0.00011186497 3.3553167e-18)
(0.27137855 -0.00015602247 1.5834228e-18)
(0.27138303 -0.00019967637 2.5828403e-18)
(0.27136587 -0.00024300948 1.366659e-18)
(0.27129391 -0.00028538386 1.4855375e-18)
(0.27109836 -0.000325823 1.1503283e-18)
(0.27063272 -0.00036230005 6.3073257e-19)
(0.26955206 -0.00039095432 3.3789178e-19)
(0.26692403 -0.00040037783 3.6515349e-19)
(0.26038022 -0.00036410564 4.8309485e-19)
(0.24645221 -0.00024818088 4.2883747e-19)
(0.22343841 -0.00012495718 3.1300993e-19)
(0.18540672 -1.904183e-05 2.5343312e-19)
(0.27201571 -2.7505235e-05 4.2010069e-18)
(0.27202015 -6.9403099e-05 3.3697842e-18)
(0.27202866 -0.00011060176 2.6753115e-18)
(0.27203751 -0.00015424331 2.2989907e-18)
(0.2720386 -0.00019735858 2.4072375e-18)
(0.27201452 -0.00024010733 1.7450364e-18)
(0.27192892 -0.00028181693 1.4661888e-18)
(0.2717068 -0.00032144525 9.5877588e-19)
(0.27118802 -0.00035681747 6.7175921e-19)
(0.2699912 -0.00038370884 4.9444526e-19)
(0.26708822 -0.000389429 3.6676675e-19)
(0.26001771 -0.00034605163 3.7545584e-19)
(0.24564917 -0.00022875086 3.4797704e-19)
(0.22270325 -0.00011151161 3.5557944e-19)
(0.18492573 -1.7355843e-05 2.2596525e-19)
(0.27267005 -2.7223403e-05 2.8421875e-18)
(0.27267421 -6.8672269e-05 -2.2729586e-19)
(0.27268192 -0.00010942927 7.8565141e-19)
(0.27268898 -0.00015258973 2.7409284e-18)
(0.27268634 -0.00019519966 2.6106136e-18)
(0.27265476 -0.00023739527 2.1179653e-18)
(0.27255447 -0.00027846699 1.3724587e-18)
(0.2723038 -0.00031730047 7.1934058e-19)
(0.27172757 -0.00035155884 7.663696e-19)
(0.27040369 -0.00037658611 6.9712123e-19)
(0.26720375 -0.00037827411 3.5111866e-19)
(0.25960771 -0.00032803713 4.0830553e-19)
(0.24486735 -0.00021058184 2.9584261e-19)
(0.22202277 -9.9808138e-05 3.3619844e-19)
(0.18449494 -1.5929484e-05 2.3242507e-19)
(0.27331772 -2.6960667e-05 1.6494639e-18)
(0.27332155 -6.7991274e-05 3.7562395e-18)
(0.27332837 -0.00010833587 3.3869574e-18)
(0.27333345 -0.00015104547 2.5587948e-18)
(0.27332673 -0.00019317869 1.6107351e-18)
(0.27328702 -0.00023484751 1.6986425e-18)
(0.27317093 -0.0002753027 1.3934798e-18)
(0.27288957 -0.00031334989 7.6635108e-19)
(0.27225107 -0.00034647442 9.6418522e-19)
(0.27078808 -0.00036951039 7.2302646e-19)
(0.26726952 -0.00036683813 4.4242092e-19)
(0.25915765 -0.0003101602 4.5985305e-19)
(0.24411266 -0.00019370463 3.6335254e-19)
(0.22139331 -8.9652401e-05 4.4591121e-19)
(0.1841079 -1.4675689e-05 3.5770604e-19)
(0.27395916 -2.6714475e-05 7.5203195e-18)
(0.27396262 -6.7353542e-05 5.3573918e-18)
(0.27396843 -0.00010731104 5.0297325e-18)
(0.27397134 -0.00014959583 3.376907e-18)
(0.27396016 -0.00019127671 1.9576816e-18)
(0.27391168 -0.00023244055 2.3816412e-18)
(0.2737786 -0.00027229533 1.9760983e-18)
(0.27346419 -0.00030955757 1.6899284e-18)
(0.27275806 -0.00034151676 1.3344483e-18)
(0.27114274 -0.00036240704 5.6723865e-19)
(0.26728512 -0.00035507155 6.7025502e-19)
(0.25867552 -0.00029252748 7.9778878e-19)
(0.24338933 -0.00017812521 6.712064e-19)
(0.22081116 -8.0841191e-05 5.7886583e-19)
(0.18375901 -1.3538666e-05 4.9291849e-19)
(0.27459475 -2.6482589e-05 1.5884997e-18)
(0.2745978 -6.675326e-05 4.5039264e-18)
(0.27460249 -0.0001063455 3.4348121e-18)
(0.274603 -0.0001482278 2.4198934e-18)
(0.27458699 -0.00018947691 3.2008062e-18)
(0.27452902 -0.00023015345 1.9203172e-18)
(0.27437767 -0.00026941895 1.1826441e-18)
(0.27402763 -0.00030589064 1.0285059e-18)
(0.27324789 -0.00033664079 6.9246733e-19)
(0.27146593 -0.00035520381 4.7466539e-19)
(0.26725094 -0.00034295249 3.099163e-19)
(0.25816956 -0.00027524859 4.9507952e-19)
(0.24270004 -0.00016382254 4.7944014e-19)
(0.22027275 -7.3177109e-05 3.2145913e-19)
(0.18344349 -1.2486088e-05 2.0437802e-19)
(0.27522481 -2.6263072e-05 9.3037784e-19)
(0.27522741 -6.6185368e-05 3.9154076e-18)
(0.27523087 -0.00010543114 3.4209698e-18)
(0.27522875 -0.00014693 2.6377764e-18)
(0.27520748 -0.00018776456 2.7822858e-18)
(0.2751393 -0.00022796774 1.8570529e-18)
(0.27496829 -0.00026665041 1.4481721e-18)
(0.27457978 -0.00030231921 1.0267676e-18)
(0.27371976 -0.0003318036 6.8962082e-19)
(0.27175586 -0.00034783257 4.5137734e-19)
(0.26716832 -0.00033048644 3.4244422e-19)
(0.25764777 -0.0002584306 3.7890175e-19)
(0.24204621 -0.0001507494 5.4130439e-19)
(0.21977469 -6.6478884e-05 3.7246849e-19)
(0.18315725 -1.1501421e-05 2.3596384e-19)
(0.27584964 -2.6054262e-05 6.6711593e-19)
(0.27585173 -6.5645512e-05 1.9251254e-18)
(0.27585383 -0.00010456099 8.3105777e-19)
(0.27584885 -0.00014569263 2.4301322e-18)
(0.27582189 -0.00018612688 2.1996287e-18)
(0.2757427 -0.00022586725 1.6546655e-18)
(0.27555052 -0.00026396905 1.4515998e-18)
(0.27512041 -0.00029881616 1.1163232e-18)
(0.27417268 -0.00032696406 6.7204284e-19)
(0.27201082 -0.00034023144 7.8910677e-19)
(0.26703956 -0.00031770398 4.6089474e-19)
(0.25711762 -0.00024217267 2.4003081e-19)
(0.24142819 -0.00013883591 2.9448683e-19)
(0.21931381 -6.0587304e-05 3.1990124e-19)
(0.18289682 -1.057747e-05 2.5980749e-19)
(0.27646948 -2.585475e-05 2.0893112e-18)
(0.27647102 -6.5129982e-05 4.373079e-18)
(0.27647162 -0.00010372909 3.3414639e-18)
(0.27646352 -0.00014450731 2.5554912e-18)
(0.2764304 -0.00018455289 1.0929098e-18)
(0.27633935 -0.00022383792 1.2856713e-18)
(0.27612438 -0.00026135649 1.1747605e-18)
(0.27564919 -0.00029535665 1.0124542e-18)
(0.27460555 -0.00032208226 6.5638112e-19)
(0.27222923 -0.0003323472 6.9426717e-19)
(0.26686787 -0.00030465719 6.1520556e-19)
(0.25658579 -0.00022656125 4.1084839e-19)
(0.2408456 -0.00012799526 3.9196475e-19)
(0.21888719 -5.5367367e-05 4.5795793e-19)
(0.18265925 -9.7115802e-06 2.7966017e-19)
(0.27708455 -2.5663345e-05 9.99942e-18)
(0.27708548 -6.4635632e-05 5.9831445e-18)
(0.27708444 -0.0001029304 5.1652267e-18)
(0.27707295 -0.00014336686 3.356387e-18)
(0.27703318 -0.00018303314 1.83403e-18)
(0.27692935 -0.00022186744 2.0315702e-18)
(0.2766898 -0.00025879623 1.8240814e-18)
(0.27616569 -0.00029191777 1.7257427e-18)
(0.27501711 -0.00031711916 1.3763984e-18)
(0.27240981 -0.00032413774 5.8224596e-19)
(0.26665728 -0.00029141517 8.9815997e-19)
(0.256058 -0.00021166603 9.8007242e-19)
(0.24029748 -0.00011813047 9.5765204e-19)
(0.21849214 -5.0707644e-05 6.6702289e-19)
(0.18244204 -8.9025342e-06 4.6336477e-19)
(0.27769504 -2.5479045e-05 3.99463e-18)
(0.27769529 -6.4159808e-05 5.8630459e-18)
(0.27769247 -0.00010216065 3.4823297e-18)
(0.27767729 -0.00014226521 2.5616434e-18)
(0.27763035 -0.0001815595 2.958422e-18)
(0.27751275 -0.00021994503 1.6121144e-18)
(0.27724666 -0.00025627339 1.4073321e-18)
(0.27666938 -0.00028847797 1.1580949e-18)
(0.275406 -0.00031203634 8.8182087e-19)
(0.27255164 -0.00031557421 5.8916904e-19)
(0.26641246 -0.00027805925 4.971322e-19)
(0.25553894 -0.0001975371 5.2437255e-19)
(0.23978254 -0.00010914113 5.6063099e-19)
(0.21812621 -4.6517862e-05 2.5985233e-19)
(0.18224308 -8.1488554e-06 2.9845426e-19)
(0.27830111 -2.5301006e-05 8.1648875e-19)
(0.27830062 -6.3700271e-05 4.7182968e-18)
(0.27829586 -0.0001014162 4.0840528e-18)
(0.27827669 -0.00014119716 3.0180653e-18)
(0.278222 -0.00018012494 2.9248232e-18)
(0.27808956 -0.00021806116 1.9583461e-18)
(0.2777948 -0.00025377436 1.5466131e-18)
(0.27715962 -0.0002850166 9.7819267e-19)
(0.27577079 -0.00030679609 8.6154751e-19)
(0.27265429 -0.00030664249 6.2760746e-19)
(0.26613848 -0.00026467813 6.619131e-19)
(0.2550323 -0.00018420368 6.092849e-19)
(0.23929925 -0.00010092916 5.5333269e-19)
(0.21778713 -4.2725647e-05 3.7320657e-19)
(0.18206056 -7.4481445e-06 3.1771137e-19)
(0.27890291 -2.5128517e-05 -9.659329e-20)
(0.27890162 -6.3255129e-05 1.2900975e-18)
(0.27889474 -0.00010069401 1.9172631e-18)
(0.27887126 -0.00014015827 2.4048951e-18)
(0.27880821 -0.00017872332 2.346124e-18)
(0.27865976 -0.00021620724 1.6782448e-18)
(0.27833397 -0.00025128651 1.098505e-18)
(0.27763569 -0.00028151345 9.6998746e-19)
(0.27611001 -0.00030136189 1.0019972e-18)
(0.2727179 -0.00029734386 1.0291095e-18)
(0.26584062 -0.00025136317 5.4041682e-19)
(0.25454084 -0.00017167439 7.3712545e-19)
(0.23884602 -9.3403161e-05 6.0880229e-19)
(0.21747286 -3.927309e-05 5.1240167e-19)
(0.18189296 -6.7970354e-06 3.4075569e-19)
(0.27950056 -2.4960973e-05 -1.7822625e-18)
(0.2794984 -6.2822776e-05 3.3350421e-18)
(0.27948922 -9.9991434e-05 1.956621e-18)
(0.27946108 -0.00013914467 1.3068355e-18)
(0.279389 -0.00017734922 1.9046595e-18)
(0.27922329 -0.00021437542 9.010435e-19)
(0.27886389 -0.00024879793 5.0895084e-19)
(0.27809674 -0.00027794829 3.7243278e-19)
(0.27642222 -0.00029569921 4.6372907e-19)
(0.27274323 -0.00028769474 8.6796245e-19)
(0.2655241 -0.00023820407 1.0484366e-19)
(0.25406651 -0.00015993912 1.3976296e-19)
(0.23842119 -8.6481053e-05 1.127692e-19)
(0.21718151 -3.6113614e-05 2.7165627e-19)
(0.18173897 -6.1914756e-06 1.5397522e-19)
(0.28009418 -2.4797857e-05 1.5978197e-18)
(0.28009107 -6.2401836e-05 3.3361832e-18)
(0.28007941 -9.9306216e-05 3.6100949e-18)
(0.28004623 -0.00013815299 1.6958545e-18)
(0.27996442 -0.00017599777 2.0300411e-18)
(0.27978006 -0.00021255838 1.218081e-18)
(0.2793842 -0.00024629716 6.7824553e-19)
(0.27854186 -0.00027430051 3.7684654e-19)
(0.27670605 -0.00028977676 2.5667688e-19)
(0.27273166 -0.0002777256 7.3254393e-19)
(0.26519392 -0.00022528491 1.6157636e-19)
(0.25361059 -0.00014897206 2.5406909e-20)
(0.23802316 -8.0091231e-05 2.5898576e-20)
(0.21691137 -3.320934e-05 8.1064118e-20)
(0.18159747 -5.6270998e-06 1.7269338e-19)
(0.28068388 -2.4638722e-05 4.3280044e-18)
(0.28067974 -6.1991116e-05 3.6640981e-18)
(0.28066539 -9.8636372e-05 2.8877137e-18)
(0.28062676 -0.00013718023 2.2706361e-18)
(0.28053445 -0.00017466448 1.7562603e-18)
(0.28032993 -0.00021074911 1.1677543e-18)
(0.27989449 -0.00024377295 4.2321567e-19)
(0.27897002 -0.00027054891 4.611292e-19)
(0.27696025 -0.00028356786 2.7199133e-19)
(0.27268518 -0.00026747915 4.9074868e-19)
(0.26485469 -0.00021268092 2.9435982e-19)
(0.25317379 -0.00013873548 2.5734672e-19)
(0.23765034 -7.4172515e-05 6.0828909e-20)
(0.2166609 -3.052903e-05 -7.9181364e-20)
(0.18146749 -5.0995656e-06 1.6912771e-19)
(0.28126974 -2.4483173e-05 3.6430364e-18)
(0.28126448 -6.1589567e-05 5.6892138e-18)
(0.28124722 -9.7980136e-05 2.9490806e-18)
(0.28120271 -0.00013622364 1.0772574e-18)
(0.28109907 -0.00017334514 6.4078076e-19)
(0.28087275 -0.00020894083 3.4120417e-19)
(0.28039427 -0.00024121406 1.5098122e-19)
(0.27938014 -0.00026667151 1.8916753e-19)
(0.27718382 -0.00027705191 1.1716463e-20)
(0.27260633 -0.00025700811 4.4215244e-20)
(0.26451052 -0.00020045586 -1.0142977e-19)
(0.25275643 -0.00012918377 -2.2576433e-19)
(0.23730122 -6.8673274e-05 -3.3636239e-19)
(0.21642866 -2.8046561e-05 -2.723283e-19)
(0.18134818 -4.6048149e-06 -5.4859368e-20)
(0.28185185 -2.4330857e-05 3.8446539e-18)
(0.28184539 -6.1196252e-05 5.1295451e-18)
(0.28182498 -9.7335908e-05 3.701797e-18)
(0.28177412 -0.00013528068 9.4578367e-19)
(0.28165822 -0.00017203573 6.8241139e-19)
(0.2814083 -0.00020712677 2.736756e-19)
(0.28088299 -0.00023860899 4.7918637e-19)
(0.27977106 -0.0002626457 1.4211497e-19)
(0.27737601 -0.00027021574 -2.2144799e-20)
(0.27249806 -0.00024637257 -8.7108555e-21)
(0.26416497 -0.0001886604 -1.4045874e-19)
(0.2523585 -0.00012026722 -2.9557129e-19)
(0.23697438 -6.3550125e-05 -3.7059984e-19)
(0.21621337 -2.5739816e-05 -2.396043e-19)
(0.18123881 -4.1392048e-06 -7.8477373e-20)
(0.28243029 -2.4181449e-05 4.6693333e-18)
(0.28242252 -6.0810309e-05 5.8948619e-18)
(0.28239871 -9.6702198e-05 4.2166575e-18)
(0.28234099 -0.00013434892 3.0854968e-18)
(0.28221186 -0.00017073227 2.0757004e-18)
(0.28193636 -0.00020530013 8.5166122e-19)
(0.28136003 -0.00023594579 7.8443167e-19)
(0.2801416 -0.00025844846 5.6537336e-19)
(0.27753642 -0.00026305461 5.0343768e-19)
(0.27236366 -0.00023563725 2.5544667e-19)
(0.26382105 -0.00017733135 4.9420846e-19)
(0.25197976 -0.00011193519 2.1649031e-19)
(0.23666845 -5.8766488e-05 1.0970306e-19)
(0.21601387 -2.3589919e-05 2.1101084e-20)
(0.1811387 -3.6995989e-06 9.1364819e-20)
(0.28300512 -2.4034648e-05 4.0193869e-18)
(0.28299594 -6.0430939e-05 2.844981e-18)
(0.28296845 -9.6077597e-05 3.9813277e-18)
(0.28290332 -0.00013342601 3.4053924e-18)
(0.28275987 -0.00016943078 2.3266839e-18)
(0.28245663 -0.00020345398 1.0570663e-18)
(0.28182471 -0.00023321186 8.1719591e-19)
(0.28049056 -0.0002540569 8.2370154e-19)
(0.27766504 -0.00025557285 6.2522448e-19)
(0.27220658 -0.0002248688 6.741021e-19)
(0.26348123 -0.00016649191 5.9978516e-19)
(0.25161982 -0.00010413863 1.9051654e-19)
(0.23638216 -5.4291229e-05 2.9721674e-19)
(0.21582908 -2.1580656e-05 1.6403724e-19)
(0.18104728 -3.28334e-06 1.1360312e-19)
(0.2835764 -2.3890166e-05 2.0094176e-18)
(0.28356569 -6.0057378e-05 2.8708122e-18)
(0.28353424 -9.5460737e-05 3.3031246e-18)
(0.2834611 -0.00013250962 2.6370186e-18)
(0.28330215 -0.00016812718 2.1991653e-18)
(0.28296879 -0.00020158114 1.3794396e-18)