/*--------------------------------*- C++ -*----------------------------------*\
| =========                 |                                                 |
| \\      /  F ield         | OpenFOAM: The Open Source CFD Toolbox           |
|  \\    /   O peration     | Version:  2506                                  |
|   \\  /    A nd           | Website:  www.openfoam.com                      |
|    \\/     M anipulation  |                                                 |
\*---------------------------------------------------------------------------*/
FoamFile
{
    version     2.0;
    format      ascii;
    arch        "LSB;label=32;scalar=64";
    class       volScalarField;
    location    "6000/water";
    object      nut;
}
// * * * * * * * * * * * * * * * * * * * * * * * * * * * * * * * * * * * * * //

dimensions      [0 2 -1 0 0 0 0];

internalField   nonuniform List<scalar> 
1000
(
3.8760013e-05
3.8759344e-05
3.875781e-05
3.8749426e-05
3.8703919e-05
3.8465194e-05
3.7257946e-05
3.1920747e-05
1.9133705e-05
1.6330702e-05
3.6503362e-05
3.6502673e-05
3.6496233e-05
3.646333e-05
3.6309099e-05
3.5625574e-05
3.2857818e-05
2.4520497e-05
1.4670663e-05
1.7686427e-05
3.4818769e-05
3.4815355e-05
3.4798028e-05
3.4720761e-05
3.4400237e-05
3.3155729e-05
2.8966492e-05
2.0114795e-05
1.4313213e-05
1.7703159e-05
3.3515366e-05
3.3507685e-05
3.3473492e-05
3.3336596e-05
3.2819807e-05
3.0995901e-05
2.5816389e-05
1.8304985e-05
1.5980789e-05
1.7332729e-05
3.247679e-05
3.2463573e-05
3.2409013e-05
3.2208499e-05
3.1494109e-05
2.9122727e-05
2.3598361e-05
1.8669071e-05
1.889528e-05
1.695623e-05
3.1628598e-05
3.1609534e-05
3.1536362e-05
3.1282472e-05
3.0382802e-05
2.7534757e-05
2.2595543e-05
2.0840913e-05
2.2318895e-05
1.6696301e-05
3.0922115e-05
3.0899107e-05
3.081697e-05
3.0532924e-05
2.9455193e-05
2.6339874e-05
2.3103801e-05
2.4287877e-05
2.5587573e-05
1.6555015e-05
3.0325437e-05
3.0303995e-05
3.0232582e-05
2.9948445e-05
2.8696199e-05
2.5834492e-05
2.5184392e-05
2.8331794e-05
2.8356126e-05
1.6492908e-05
2.9818406e-05
2.9809196e-05
2.9779279e-05
2.9521843e-05
2.8158061e-05
2.640514e-05
2.8560008e-05
3.2392716e-05
3.0574113e-05
1.6472341e-05
2.9389963e-05
2.9410464e-05
2.9462797e-05
2.9249418e-05
2.8031646e-05
2.8288412e-05
3.2740061e-05
3.6145419e-05
3.2325563e-05
1.6470348e-05
2.9037012e-05
2.9113027e-05
2.9294037e-05
2.9152039e-05
2.8635107e-05
3.1431696e-05
3.7231654e-05
3.9484558e-05
3.3719787e-05
1.6476055e-05
2.8764308e-05
2.8930745e-05
2.9285796e-05
2.9323105e-05
3.0269896e-05
3.5542778e-05
4.1683882e-05
4.2417976e-05
3.4850509e-05
1.6485282e-05
2.8585069e-05
2.8885021e-05
2.9456287e-05
2.9966827e-05
3.3062457e-05
4.0234171e-05
4.5910912e-05
4.4991584e-05
3.5787813e-05
1.6496766e-05
2.8522037e-05
2.9003076e-05
2.9849168e-05
3.1360087e-05
3.6918755e-05
4.5156994e-05
4.9841339e-05
4.7257301e-05
3.6581153e-05
1.6510241e-05
2.8608573e-05
2.931668e-05
3.0570755e-05
3.3736275e-05
4.158691e-05
5.006731e-05
5.3461931e-05
4.9262555e-05
3.7264766e-05
1.6525652e-05
2.8889228e-05
2.9865903e-05
3.1814279e-05
3.7180613e-05
4.6760469e-05
5.482479e-05
5.6783931e-05
5.104728e-05
3.7861792e-05
1.6542906e-05
2.9419551e-05
3.0715637e-05
3.3824849e-05
4.1605643e-05
5.2164932e-05
5.9359787e-05
5.9827283e-05
5.2642539e-05
3.8381998e-05
1.6561743e-05
3.0266785e-05
3.1985447e-05
3.6807491e-05
4.6798487e-05
5.7598953e-05
6.3641881e-05
6.2613453e-05
5.4068874e-05
3.8841658e-05
1.6581869e-05
3.1517262e-05
3.3868854e-05
4.0842159e-05
5.2497458e-05
6.2933696e-05
6.7660624e-05
6.5161152e-05
5.5349574e-05
3.9251438e-05
1.6603088e-05
3.3297477e-05
3.6603461e-05
4.58576e-05
5.8458696e-05
6.8092376e-05
7.1415533e-05
6.7489007e-05
5.6504131e-05
3.961915e-05
1.6625233e-05
3.5800235e-05
4.0389451e-05
5.1663839e-05
6.4490748e-05
7.3028956e-05
7.4907458e-05
6.9617542e-05
5.754739e-05
3.9950788e-05
1.6648128e-05
3.9277938e-05
4.5307101e-05
5.8013872e-05
7.0457165e-05
7.7711326e-05
7.8146332e-05
7.1563643e-05
5.8491248e-05
4.0250681e-05
1.6671584e-05
4.3969081e-05
5.1283298e-05
6.4661904e-05
7.6260787e-05
8.2121224e-05
8.1143048e-05
7.3340893e-05
5.9344965e-05
4.0521909e-05
1.6695399e-05
4.9984331e-05
5.8114877e-05
7.1396331e-05
8.1830015e-05
8.6249687e-05
8.3905995e-05
7.4959832e-05
6.0115448e-05
4.076658e-05
1.671937e-05
5.7225487e-05
6.5523204e-05
7.8046402e-05
8.7114282e-05
9.0089918e-05
8.6440641e-05
7.6427853e-05
6.0807457e-05
4.098598e-05
1.6743289e-05
6.5387834e-05
7.3209424e-05
8.4485125e-05
9.2075898e-05
9.3633517e-05
8.8749048e-05
7.7749232e-05
6.1423775e-05
4.1180657e-05
1.6766933e-05
7.4041759e-05
8.0900815e-05
9.061765e-05
9.6681598e-05
9.6870193e-05
9.083001e-05
7.8925395e-05
6.1965419e-05
4.1350518e-05
1.6790064e-05
8.2743112e-05
8.836722e-05
9.636752e-05
0.00010090243
9.9788758e-05
9.2679953e-05
7.9955569e-05
6.2432041e-05
4.1494975e-05
1.6812421e-05
9.1118784e-05
9.542657e-05
0.00010167368
0.00010471499
0.0001023791
9.4294533e-05
8.0837866e-05
6.2822539e-05
4.1613202e-05
1.6833721e-05
9.890466e-05
0.00010194567
0.00010649057
0.0001081033
0.00010463454
9.5670644e-05
8.1570662e-05
6.3135853e-05
4.170445e-05
1.6853679e-05
0.00010594434
0.00010783811
0.00011078906
0.0001110604
0.00010655396
9.6808315e-05
8.2153987e-05
6.3371775e-05
4.1768379e-05
1.6872022e-05
0.00011216793
0.00011305948
0.00011455686
0.00011358915
0.00010814304
9.7712104e-05
8.259065e-05
6.3531649e-05
4.1805338e-05
1.6888514e-05
0.00011756654
0.0001176002
0.00011779759
0.00011570204
0.00010941457
9.8391717e-05
8.2886862e-05
6.3618785e-05
4.1816525e-05
1.6902978e-05
0.00012217035
0.00012147743
0.00012052882
0.0001174201
0.00011038786
9.8861855e-05
8.3052322e-05
6.3638559e-05
4.1804024e-05
1.691531e-05
0.00012603243
0.00012472722
0.00012277924
0.00011877125
0.00011108749
9.9141443e-05
8.3099793e-05
6.3598206e-05
4.1770696e-05
1.6925486e-05
0.00012921784
0.0001273977
0.0001245856
0.00011978834
0.00011154182
9.9252482e-05
8.3044345e-05
6.3506368e-05
4.1719982e-05
1.6933558e-05
0.00013179651
0.00012954372
0.00012598974
0.00012050725
0.00011178134
9.9218752e-05
8.290242e-05
6.337252e-05
4.1655636e-05
1.6939645e-05
0.00013383887
0.00013122283
0.00012703605
0.00012096513
0.00011183721
9.9064581e-05
8.2690893e-05
6.320637e-05
4.1581468e-05
1.6943916e-05
0.00013541304
0.00013249242
0.00012776941
0.00012119892
0.00011174006
9.881377e-05
8.2426233e-05
6.3017328e-05
4.1501107e-05
1.6946576e-05
0.00013658325
0.0001334078
0.00012823352
0.00012124421
0.00011151901
9.8488771e-05
8.2123851e-05
6.2814078e-05
4.1417828e-05
1.6947848e-05
0.00013740884
0.0001340209
0.00012846986
0.00012113445
0.00011120101
9.8110101e-05
8.1797636e-05
6.2604296e-05
4.1334437e-05
1.6947958e-05
0.0001379439
0.00013437957
0.00012851694
0.0001209004
0.00011081045
9.7696001e-05
8.1459693e-05
6.2394491e-05
4.1253223e-05
1.6947124e-05
0.00013823708
0.00013452726
0.00012840985
0.00012056981
0.00011036895
9.7262275e-05
8.1120231e-05
6.2189962e-05
4.1175955e-05
1.694555e-05
0.00013833169
0.00013450286
0.00012818014
0.00012016736
0.00010989527
9.6822282e-05
8.0787583e-05
6.1994833e-05
4.110391e-05
1.6943419e-05
0.000138266
0.00013434088
0.00012785579
0.00011971463
0.00010940542
9.6386987e-05
8.0468211e-05
6.1811871e-05
4.1036851e-05
1.694088e-05
0.00013807351
0.0001340716
0.00012746129
0.00011923021
0.00010891274
9.5965068e-05
8.016672e-05
6.1642137e-05
4.097591e-05
1.6938059e-05
0.0001377833
0.00013372135
0.00012701786
0.00011872986
0.00010842806
9.5562985e-05
7.9885656e-05
6.1487719e-05
4.0921561e-05
1.693508e-05
0.00013742049
0.00013331283
0.00012654359
0.00011822662
0.00010795974
9.5184901e-05
7.9628151e-05
6.1349422e-05
4.0873969e-05
1.693205e-05
0.00013700648
0.00013286534
0.00012605367
0.00011773096
0.00010751375
9.4835118e-05
7.9395666e-05
6.1227471e-05
4.0833056e-05
1.6929051e-05
0.00013655934
0.00013239506
0.00012556038
0.00011725081
0.00010709579
9.4516057e-05
7.9188746e-05
6.1121631e-05
4.0798553e-05
1.6926148e-05
0.000136094
0.00013191514
0.00012507382
0.00011679356
0.00010670959
9.4228941e-05
7.9007226e-05
6.1031301e-05
4.0770061e-05
1.692339e-05
0.00013562277
0.00013143678
0.00012460275
0.00011636449
0.00010635744
9.397404e-05
7.8850371e-05
6.0955607e-05
4.0747094e-05
1.6920812e-05
0.00013515606
0.00013096929
0.00012415393
0.00011596729
0.00010604048
9.3750858e-05
7.8717017e-05
6.0893485e-05
4.0729122e-05
1.6918434e-05
0.00013470231
0.00013052007
0.00012373241
0.00011560432
0.0001057589
9.3558297e-05
7.8605682e-05
6.0843755e-05
4.0715594e-05
1.6916272e-05
0.0001342682
0.00013009478
0.00012334176
0.00011527681
0.00010551211
9.3394801e-05
7.8514674e-05
6.080518e-05
4.0705963e-05
1.6914329e-05
0.00013385882
0.00012969762
0.00012298432
0.00011498506
0.00010529891
9.3258495e-05
7.8442184e-05
6.0776512e-05
4.0699702e-05
1.6912607e-05
0.0001334779
0.0001293315
0.00012266135
0.00011472862
0.00010511765
9.3147287e-05
7.8386351e-05
6.0756534e-05
4.0696319e-05
1.6911099e-05
0.00013312799
0.00012899823
0.00012237325
0.00011450641
0.00010496633
9.3058958e-05
7.8345318e-05
6.074408e-05
4.0695357e-05
1.6909798e-05
0.00013281058
0.00012869867
0.00012211966
0.00011431687
0.00010484272
9.2991221e-05
7.8317265e-05
6.0738045e-05
4.0696399e-05
1.6908693e-05
0.00013252628
0.00012843289
0.0001218996
0.00011415807
0.00010474438
9.2941769e-05
7.8300423e-05
6.073739e-05
4.069906e-05
1.6907772e-05
0.00013227495
0.00012820026
0.00012171156
0.00011402775
0.00010466881
9.2908315e-05
7.8293102e-05
6.0741144e-05
4.0702987e-05
1.690702e-05
0.00013205578
0.00012799957
0.00012155366
0.00011392347
0.00010461344
9.2888636e-05
7.8293704e-05
6.0748409e-05
4.0707857e-05
1.6906422e-05
0.00013186747
0.00012782919
0.00012142372
0.00011384267
0.00010457574
9.2880625e-05
7.8300758e-05
6.075838e-05
4.0713388e-05
1.6905961e-05
0.00013170834
0.00012768718
0.00012131938
0.0001137828
0.00010455332
9.2882334e-05
7.8312946e-05
6.0770354e-05
4.0719339e-05
1.6905621e-05
0.00013157644
0.0001275714
0.00012123823
0.00011374136
0.0001045439
9.2892002e-05
7.8329108e-05
6.0783735e-05
4.072552e-05
1.6905387e-05
0.00013146967
0.00012747959
0.00012117785
0.00011371596
0.00010454542
9.290805e-05
7.834824e-05
6.0798026e-05
4.0731779e-05
1.6905246e-05
0.00013138582
0.00012740944
0.00012113586
0.00011370433
0.00010455594
9.2929062e-05
7.8369461e-05
6.0812804e-05
4.0737993e-05
1.6905185e-05
0.00013132261
0.00012735862
0.0001211099
0.00011370431
0.00010457368
9.2953751e-05
7.8391989e-05
6.0827698e-05
4.0744055e-05
1.6905192e-05
0.00013127772
0.00012732476
0.00012109767
0.00011371382
0.00010459698
9.2980945e-05
7.841512e-05
6.0842377e-05
4.0749866e-05
1.6905255e-05
0.00013124883
0.00012730555
0.00012109696
0.00011373093
0.00010462433
9.300959e-05
7.8438231e-05
6.0856549e-05
4.0755334e-05
1.6905362e-05
0.00013123363
0.00012729872
0.00012110565
0.00011375386
0.00010465436
9.303878e-05
7.8460805e-05
6.086998e-05
4.0760389e-05
1.6905502e-05
0.00013122993
0.00012730213
0.00012112183
0.00011378105
0.00010468594
9.3067782e-05
7.8482445e-05
6.08825e-05
4.0764953e-05
1.6905664e-05
0.00013123573
0.00012731387
0.00012114381
0.00011381116
0.00010471814
9.3096036e-05
7.850287e-05
6.0893978e-05
4.0769003e-05
1.6905841e-05
0.00013124923
0.00012733222
0.00012117014
0.0001138431
0.00010475024
9.312313e-05
7.8521876e-05
6.0904377e-05
4.077258e-05
1.6906025e-05
0.00013126884
0.0001273557
0.00012119958
0.00011387596
0.00010478164
9.3148739e-05
7.8539357e-05
6.0913729e-05
4.0775721e-05
1.6906214e-05
0.00013129319
0.00012738302
0.00012123105
0.00011390896
0.00010481187
9.317263e-05
7.8555285e-05
6.092206e-05
4.0778464e-05
1.6906404e-05
0.00013132102
0.000127413
0.00012126359
0.00011394141
0.0001048405
9.3194661e-05
7.856963e-05
6.0929399e-05
4.0780836e-05
1.6906591e-05
0.00013135118
0.00012744457
0.00012129631
0.00011397271
0.00010486725
9.3214697e-05
7.8582368e-05
6.0935769e-05
4.0782855e-05
1.6906774e-05
0.00013138259
0.00012747673
0.00012132845
0.00011400238
0.00010489184
9.323264e-05
7.8593493e-05
6.0941192e-05
4.0784533e-05
1.6906948e-05
0.0001314143
0.00012750865
0.0001213594
0.00011403004
0.0001049141
9.324844e-05
7.8603022e-05
6.0945696e-05
4.0785879e-05
1.6907112e-05
0.00013144551
0.00012753963
0.00012138865
0.00011405541
0.00010493394
9.3262115e-05
7.8611015e-05
6.0949333e-05
4.0786912e-05
1.6907261e-05
0.0001314756
0.00012756915
0.00012141586
0.00011407835
0.00010495135
9.3273754e-05
7.8617578e-05
6.0952178e-05
4.0787662e-05
1.6907395e-05
0.00013150413
0.00012759685
0.00012144086
0.00011409886
0.00010496645
9.3283511e-05
7.8622853e-05
6.0954328e-05
4.0788169e-05
1.6907515e-05
0.00013153084
0.00012762253
0.00012146357
0.000114117
0.00010497939
9.3291576e-05
7.8627006e-05
6.0955892e-05
4.0788481e-05
1.690762e-05
0.0001315556
0.00012764613
0.00012148404
0.00011413291
0.00010499038
9.3298147e-05
7.8630197e-05
6.0956973e-05
4.0788644e-05
1.6907712e-05
0.00013157835
0.00012766762
0.00012150232
0.00011414673
0.0001049996
9.33034e-05
7.8632566e-05
6.0957659e-05
4.0788694e-05
1.6907793e-05
0.00013159909
0.00012768702
0.00012151849
0.0001141586
0.00010500719
9.3307479e-05
7.863422e-05
6.0958012e-05
4.0788654e-05
1.6907864e-05
0.0001316178
0.00012770435
0.00012153261
0.0001141686
0.00010501328
9.3310495e-05
7.8635241e-05
6.0958076e-05
4.0788539e-05
1.6907925e-05
0.00013163443
0.00012771959
0.00012154473
0.00011417684
0.00010501797
9.331254e-05
7.8635692e-05
6.0957881e-05
4.0788352e-05
1.6907976e-05
0.00013164897
0.00012773275
0.00012155489
0.00011418341
0.00010502138
9.3313708e-05
7.8635635e-05
6.0957456e-05
4.0788098e-05
1.6908017e-05
0.00013166142
0.00012774387
0.00012156318
0.00011418842
0.00010502361
9.3314103e-05
7.8635143e-05
6.0956837e-05
4.0787786e-05
1.6908048e-05
0.00013167181
0.00012775303
0.00012156973
0.00011419203
0.00010502484
9.3313851e-05
7.8634301e-05
6.0956069e-05
4.078743e-05
1.690807e-05
0.00013168026
0.00012776035
0.0001215747
0.00011419441
0.00010502521
9.3313088e-05
7.8633202e-05
6.0955204e-05
4.078705e-05
1.6908085e-05
0.00013168694
0.00012776601
0.00012157829
0.00011419577
0.00010502492
9.3311949e-05
7.8631939e-05
6.0954293e-05
4.0786666e-05
1.6908093e-05
0.00013169203
0.00012777023
0.00012158071
0.0001141963
0.00010502411
9.3310553e-05
7.8630587e-05
6.0953378e-05
4.0786295e-05
1.6908096e-05
0.00013169574
0.00012777319
0.00012158213
0.00011419615
0.00010502292
9.3308992e-05
7.8629203e-05
6.0952488e-05
4.0785949e-05
1.6908096e-05
0.00013169826
0.00012777507
0.00012158273
0.00011419546
0.00010502144
9.3307325e-05
7.8627821e-05
6.0951635e-05
4.078563e-05
1.6908093e-05
0.00013169975
0.00012777602
0.00012158261
0.00011419432
0.00010501973
9.3305588e-05
7.8626453e-05
6.0950823e-05
4.0785336e-05
1.6908088e-05
0.00013170032
0.00012777616
0.00012158188
0.0001141928
0.00010501785
9.3303803e-05
7.8625105e-05
6.0950044e-05
4.0785059e-05
1.690808e-05
0.00013170009
0.00012777558
0.00012158062
0.00011419096
0.00010501581
9.3301983e-05
7.8623777e-05
6.0949294e-05
4.0784794e-05
1.6908071e-05
)
;

boundaryField
{
    water_inlet
    {
        type            calculated;
        value           uniform 4.1926275e-05;
    }
    water_outlet
    {
        type            calculated;
        value           nonuniform List<scalar> 10(0.00013170009 0.00012777558 0.00012158062 0.00011419096 0.00010501581 9.3301983e-05 7.8623777e-05 6.0949294e-05 4.0784794e-05 1.6908071e-05);
    }
    water_wedge1
    {
        type            wedge;
    }
    water_wedge2
    {
        type            wedge;
    }
    water_to_rock
    {
        type            nutkWallFunction;
        blending        stepwise;
        value           nonuniform List<scalar> 
100
(
1.7358471e-06
1.9240026e-06
1.9263124e-06
1.8751054e-06
1.822911e-06
1.7867868e-06
1.7671186e-06
1.7584651e-06
1.7555992e-06
1.7553222e-06
1.7561178e-06
1.7574034e-06
1.7590035e-06
1.7608811e-06
1.7630283e-06
1.7654319e-06
1.7680555e-06
1.7708582e-06
1.7738125e-06
1.7768954e-06
1.7800823e-06
1.7833463e-06
1.7866598e-06
1.7899944e-06
1.793321e-06
1.796609e-06
1.7998251e-06
1.8029328e-06
1.8058932e-06
1.8086666e-06
1.8112152e-06
1.8135064e-06
1.8155155e-06
1.8172282e-06
1.8186413e-06
1.819762e-06
1.8206071e-06
1.8212002e-06
1.8215696e-06
1.8217464e-06
1.8217617e-06
1.821646e-06
1.8214274e-06
1.8211315e-06
1.8207788e-06
1.8203871e-06
1.8199735e-06
1.8195528e-06
1.8191364e-06
1.8187334e-06
1.8183505e-06
1.8179924e-06
1.8176622e-06
1.8173618e-06
1.817092e-06
1.8168527e-06
1.8166433e-06
1.8164627e-06
1.8163094e-06
1.8161815e-06
1.8160769e-06
1.8159936e-06
1.8159294e-06
1.8158821e-06
1.8158497e-06
1.8158303e-06
1.815822e-06
1.815823e-06
1.8158316e-06
1.8158462e-06
1.8158653e-06
1.8158876e-06
1.8159122e-06
1.8159381e-06
1.8159646e-06
1.8159913e-06
1.8160176e-06
1.8160429e-06
1.8160669e-06
1.8160893e-06
1.8161098e-06
1.8161284e-06
1.8161451e-06
1.81616e-06
1.8161732e-06
1.8161848e-06
1.8161948e-06
1.8162031e-06
1.81621e-06
1.8162154e-06
1.8162195e-06
1.8162225e-06
1.8162245e-06
1.8162256e-06
1.8162261e-06
1.8162261e-06
1.8162257e-06
1.8162248e-06
1.8162236e-06
1.8162222e-06
)
;
    }
}


// ************************************************************************* //
