/*--------------------------------*- C++ -*----------------------------------*\
| =========                 |                                                 |
| \\      /  F ield         | OpenFOAM: The Open Source CFD Toolbox           |
|  \\    /   O peration     | Version:  2506                                  |
|   \\  /    A nd           | Website:  www.openfoam.com                      |
|    \\/     M anipulation  |                                                 |
\*---------------------------------------------------------------------------*/
FoamFile
{
    version     2.0;
    format      ascii;
    arch        "LSB;label=32;scalar=64";
    class       surfaceScalarField;
    location    "6000/water";
    object      phi;
}
// * * * * * * * * * * * * * * * * * * * * * * * * * * * * * * * * * * * * * //

dimensions      [1 0 -1 0 0 0 0];

oriented        oriented;

internalField   nonuniform List<scalar> 
1890
(
-4.1736248e-05
0.0022168351
-0.00015753622
0.0059586937
-0.00032930669
0.0087985477
-0.00054203243
0.010900937
-0.00078239504
0.012402155
-0.0010351826
0.013412336
-0.0012746193
0.014013996
-0.0014359746
0.014245356
-0.001284859
0.0140006
0.012745539
-3.1455823e-05
0.0022482909
-0.00011269722
0.006039935
-0.00023219387
0.0089180443
-0.00037999425
0.011048737
-0.0005459426
0.012568103
-0.00071649908
0.013582893
-0.00086674519
0.014164242
-0.00093361956
0.01431223
-0.00073394508
0.013800926
0.012011594
-2.9138825e-05
0.0022774298
-0.00010672995
0.0061175262
-0.00022105541
0.0090323697
-0.00036160327
0.011189285
-0.00051700144
0.012723501
-0.00067116238
0.013737054
-0.00079396194
0.014287042
-0.0008113981
0.014329666
-0.00056729965
0.013556827
0.011444294
-2.7339928e-05
0.0023047697
-0.00010102594
0.0061912122
-0.00020924231
0.0091405861
-0.00034097886
0.011321022
-0.00048374652
0.012866269
-0.00061911469
0.013872422
-0.00071088186
0.014378809
-0.00067660003
0.014295384
-0.00042026224
0.01330049
0.011024032
-2.5625221e-05
0.0023303949
-9.4386092e-05
0.006259973
-0.00019506678
0.0092412668
-0.00031669838
0.011442653
-0.00044589454
0.012995465
-0.00056132312
0.01398785
-0.00061882649
0.014436312
-0.00053651219
0.01421307
-0.00029565513
0.013059632
0.010728377
-2.4159488e-05
0.0023545544
-8.8799466e-05
0.006324613
-0.00018306039
0.0093355277
-0.00029574152
0.011555334
-0.00041210841
0.013111832
-0.00050662204
0.014082364
-0.00052703448
0.014456725
-0.00040878218
0.014094818
-0.00020043132
0.012851282
0.010527946
-2.2965504e-05
0.0023775199
-8.4333536e-05
0.006385981
-0.00017335355
0.0094245477
-0.0002782688
0.01166025
-0.00038232698
0.01321589
-0.00045437822
0.014154415
-0.00043820397
0.014440551
-0.00030321494
0.013959829
-0.00013378752
0.012681854
0.010394158
-2.2023872e-05
0.0023995438
-8.076991e-05
0.0064447271
-0.00016540604
0.0095091838
-0.00026327248
0.011758116
-0.00035472756
0.013307345
-0.00040244446
0.014202132
-0.0003554603
0.014393566
-0.00022237111
0.01382674
-8.9856713e-05
0.01254934
0.010304301
-2.1260584e-05
0.0024208043
-7.7812691e-05
0.0065012792
-0.00015855258
0.0095899236
-0.00024948587
0.011849049
-0.0003271235
0.013384983
-0.00034954799
0.014224557
-0.00028213213
0.01432615
-0.00016300526
0.013707613
-6.1427918e-05
0.012447762
0.010242873
-2.0607146e-05
0.0024414115
-7.5216677e-05
0.0065558887
-0.00015223249
0.0096669394
-0.00023577814
0.011932595
-0.0002978473
0.013447052
-0.00029644939
0.014223159
-0.00022024068
0.014249942
-0.00011980629
0.013607178
-4.2689828e-05
0.012370646
0.010200184
-2.0018271e-05
0.0024614297
-7.2804672e-05
0.0066086751
-0.00014600136
0.0097401361
-0.00022120599
0.0120078
-0.00026613563
0.013491981
-0.00024532
0.014202343
-0.00016974801
0.01417437
-8.7951011e-05
0.013525381
-2.9805471e-05
0.0123125
0.010170378
-1.9463521e-05
0.0024808933
-7.0441373e-05
0.0066596529
-0.00013947751
0.0098091723
-0.00020502209
0.012073344
-0.00023228107
0.01351924
-0.00019838477
0.014168447
-0.00012919708
0.014105182
-6.3918061e-05
0.013460102
-2.0485559e-05
0.012269068
0.010149893
-1.8918735e-05
0.002499812
-6.8008091e-05
0.0067087423
-0.00013229876
0.0098734629
-0.00018675585
0.012127801
-0.00019748182
0.013529966
-0.0001569803
0.014127945
-9.6700649e-05
0.014044902
-4.5355233e-05
0.013408757
-1.3426863e-05
0.012237139
0.010136466
-1.8360377e-05
0.0025181724
-6.5381784e-05
0.0067557637
-0.00012410698
0.0099321881
-0.00016633467
0.012170029
-0.0001633331
0.013526965
-0.00012140713
0.014086019
-7.0530828e-05
0.013994026
-3.0720356e-05
0.013368946
-7.8898273e-06
0.012214309
0.010128576
-1.7761413e-05
0.0025359338
-6.2419622e-05
0.0068004219
-0.00011457693
0.0099843454
-0.00014416258
0.012199615
-0.00013123998
0.013514042
-9.127334e-05
0.014046053
-4.92963e-05
0.013952049
-1.8986299e-05
0.013338636
-3.432559e-06
0.012198755
0.010125143
-1.7087894e-05
0.0025530217
-5.8952435e-05
0.0068422865
-0.00010349022
0.010028883
-0.00012105238
0.012217177
-0.00010208288
0.013495073
-6.5898858e-05
0.014009869
-3.1931797e-05
0.013918082
-9.4505262e-06
0.013316155
2.8715334e-07
0.012189018
0.01012543
-1.629643e-05
0.0025693181
-5.4793097e-05
0.0068807832
-9.0831915e-05
0.010064922
-9.7998153e-05
0.012224343
-7.6209222e-05
0.013473284
-4.4571355e-05
0.013978231
-1.762658e-05
0.013891137
-1.5567307e-06
0.013300085
3.3721144e-06
0.012184089
0.010128803
-1.5331708e-05
0.0025846499
-4.9761735e-05
0.0069152132
-7.6852127e-05
0.010092012
-7.5897829e-05
0.012223389
-5.3588253e-05
0.013450974
-2.6634135e-05
0.013951277
-5.7252356e-06
0.013870228
4.998004e-06
0.013289362
5.8495783e-06
0.012183237
0.010134652
-1.4126666e-05
0.0025987765
-4.3732433e-05
0.006944819
-6.2043746e-05
0.010110324
-5.5379015e-05
0.012216724
-3.398558e-05
0.013429581
-1.1511793e-05
0.013928803
4.2374931e-06
0.013854479
1.0368085e-05
0.013283232
7.8669824e-06
0.012185738
0.010142519
-1.2609058e-05
0.0026113856
-3.6694457e-05
0.0069689044
-4.7030976e-05
0.01012066
-3.6774968e-05
0.012206468
-1.7080396e-05
0.013409886
1.3282668e-06
0.013910394
1.2526899e-05
0.013843281
1.4773816e-05
0.013280985
9.5157007e-06
0.012190997
0.010152035
-1.0718522e-05
0.0026221041
-2.8800588e-05
0.0069869865
-3.2419916e-05
0.01012428
-2.0181234e-05
0.012194229
-2.4810974e-06
0.013392186
1.2171455e-05
0.013895742
1.9376164e-05
0.013836076
1.8389154e-05
0.013281972
1.0861252e-05
0.012198525
0.010162896
-8.4361744e-06
0.0026305403
-2.0369058e-05
0.0069989194
-1.8684385e-05
0.010122595
-5.5176126e-06
0.012181063
1.0031164e-05
0.013376638
2.1196859e-05
0.013884576
2.5023284e-05
0.013832249
2.1344512e-05
0.013285651
1.1950911e-05
0.012207918
0.010174847
-5.8188567e-06
0.0026363592
-1.1825218e-05
0.0070049258
-6.1103279e-06
0.01011688
7.2770711e-06
0.012167675
2.0570815e-05
0.013363344
2.868446e-05
0.013876463
2.9653987e-05
0.01383128
2.3737672e-05
0.013291567
1.2818914e-05
0.012218837
0.010187666
-3.0142421e-06
0.0026393734
-3.5961108e-06
0.0070055076
5.1025147e-06
0.010108182
1.8190577e-05
0.012154587
2.9353979e-05
0.01335218
3.4839297e-05
0.013870977
3.3406073e-05
0.013832713
2.564011e-05
0.013299333
1.348962e-05
0.012230988
0.010201156
-2.342826e-07
0.0026396077
3.9065238e-06
0.0070013669
1.4739412e-05
0.010097349
2.7284093e-05
0.012142043
3.6558487e-05
0.013342906
3.9810855e-05
0.013867725
3.6376033e-05
0.013836148
2.7099786e-05
0.013308609
1.3978399e-05
0.012244109
0.010215134
2.2767822e-06
0.0026373309
1.0308029e-05
0.0069933356
2.268067e-05
0.010084976
3.4654614e-05
0.012130069
4.2307385e-05
0.013335253
4.3695715e-05
0.013866337
3.8620831e-05
0.013841223
2.8140849e-05
0.013319089
1.4290364e-05
0.012257959
0.010229424
4.3215497e-06
0.0026330094
1.539459e-05
0.0069822626
2.8919847e-05
0.010071451
4.0372606e-05
0.012118616
4.6676874e-05
0.013328949
4.6545411e-05
0.013866468
4.0163333e-05
0.013847605
2.8766462e-05
0.013330486
1.442165e-05
0.012272304
0.010243846
5.8171158e-06
0.0026271923
1.9123382e-05
0.0069689563
3.349273e-05
0.010057081
4.4499201e-05
0.012107609
4.9715278e-05
0.013323733
4.8382627e-05
0.013867801
4.1004133e-05
0.013854984
2.8966147e-05
0.013342524
1.4362536e-05
0.012286908
0.010258208
6.775575e-06
0.0026204167
2.1562079e-05
0.0069541698
3.6486583e-05
0.010042157
4.7107872e-05
0.012096988
5.1466598e-05
0.013319374
4.9221823e-05
0.013870046
4.1137421e-05
0.013863068
2.872645e-05
0.013354935
1.4103021e-05
0.012301531
0.010272311
7.2691561e-06
0.0026131475
2.2857161e-05
0.0069385818
3.8041401e-05
0.010026973
4.8301276e-05
0.012086728
5.1991413e-05
0.013315684
4.9088743e-05
0.013872948
4.0566595e-05
0.01387159
2.8041473e-05
0.01336746
1.3637685e-05
0.012315935
0.010285949
7.3945118e-06
0.002605753
2.3198745e-05
0.0069227776
3.8341114e-05
0.01001183
4.8218844e-05
0.012076851
5.1381037e-05
0.013312522
4.8035535e-05
0.013876294
3.9317328e-05
0.013880308
2.6922255e-05
0.013379855
1.2970668e-05
0.012329887
0.01029892
7.2476638e-06
0.0025985054
2.2789082e-05
0.0069072361
3.759685e-05
0.0099970226
4.7033474e-05
0.012067414
4.9761509e-05
0.013309794
4.6147517e-05
0.013879908
3.7444259e-05
0.013889011
2.5401629e-05
0.013391898
1.2117725e-05
0.012343171
0.010311038
6.9115484e-06
0.0025915938
2.1819924e-05
0.0068923278
3.6028036e-05
0.0099828145
4.4940677e-05
0.012058501
4.7288874e-05
0.013307446
4.3541944e-05
0.013883655
3.5031262e-05
0.013897522
2.3534761e-05
0.013403394
1.1106682e-05
0.012355599
0.010322144
6.4523245e-06
0.0025851415
2.0459524e-05
0.0068783206
3.3845781e-05
0.0099694282
4.2144253e-05
0.012050203
4.4138336e-05
0.013305452
4.0360028e-05
0.013887433
3.2185554e-05
0.013905697
2.1394879e-05
0.013414185
9.9748012e-06
0.012367019
0.010332119
5.9203132e-06
0.0025792212
1.8847604e-05
0.0068653933
3.124122e-05
0.0099570346
3.8842684e-05
0.012042601
4.0491385e-05
0.013303803
3.67557e-05
0.013891169
2.9028468e-05
0.013913424
1.9066518e-05
0.013424147
8.7652474e-06
0.01237732
0.010340884
5.3525979e-06
0.0025738686
1.7095424e-05
0.0068536504
2.8378962e-05
0.0099457511
3.5218364e-05
0.012035762
3.6523553e-05
0.013302498
3.2883623e-05
0.013894808
2.5684874e-05
0.013920623
1.6637408e-05
0.013433194
7.5225145e-06
0.012386435
0.010348407
4.775883e-06
0.0025690927
1.5288645e-05
0.0068431377
2.5394926e-05
0.0099356448
3.1430748e-05
0.012029726
3.2394983e-05
0.013301533
2.8889008e-05
0.013898314
2.2273784e-05
0.013927238
1.419128e-05
0.013441277
6.288658e-06
0.012394337
0.010354695
4.2089589e-06
0.0025648837
1.3491191e-05
0.0068338554
2.239709e-05
0.0099267389
2.7613008e-05
0.01202451
2.8244187e-05
0.013300902
2.490009e-05
0.013901659
1.890101e-05
0.013933237
1.1802063e-05
0.013448376
5.1000981e-06
0.012401039
0.010359796
3.664703e-06
0.002561219
1.174928e-05
0.0068257708
1.9468097e-05
0.00991902
2.3871649e-05
0.012020107
2.4185157e-05
0.013300589
2.1023838e-05
0.01390482
1.5654756e-05
0.013938606
9.5304834e-06
0.0134545
3.9859527e-06
0.012406584
0.010363782
3.1515944e-06
0.0025580674
1.0095051e-05
0.0068188274
1.666864e-05
0.0099124464
2.0288039e-05
0.012016487
2.0306946e-05
0.01330057
1.7344323e-05
0.013907782
1.2603636e-05
0.013943347
7.4224976e-06
0.013459681
2.9672675e-06
0.012411039
0.010366749
2.6748793e-06
0.0025553925
8.5496997e-06
0.0068129526
1.4041116e-05
0.009906955
1.6921168e-05
0.012013607
1.6675201e-05
0.013300816
1.3923337e-05
0.013910534
9.7969073e-06
0.013947473
5.5095813e-06
0.013463968
2.0574138e-06
0.012414491
0.010368806
2.2374343e-06
0.0025531551
7.126043e-06
0.0068080639
1.1613089e-05
0.009902468
1.38109e-05
0.012011409
1.3334744e-05
0.013301292
1.0802364e-05
0.013913067
7.2661032e-06
0.013951009
3.8100875e-06
0.013467424
1.2629255e-06
0.012417038
0.010370069
1.8404278e-06
0.0025513147
5.8306321e-06
0.0068040737
9.4004947e-06
0.0098988981
1.0981485e-05
0.012009828
1.0312923e-05
0.01330196
8.0056976e-06
0.013915374
5.0278625e-06
0.013953987
2.3316903e-06
0.013470121
5.8514192e-07
0.012418785
0.010370654
1.4837942e-06
0.0025498309
4.6653437e-06
0.0068008922
7.410219e-06
0.0098961532
8.4445536e-06
0.012008794
7.6226009e-06
0.013302782
5.5431667e-06
0.013917453
3.0864246e-06
0.013956444
1.0743258e-06
0.013472133
3.1886112e-08
0.012419827
0.010370686
1.1665386e-06
0.0025486643
3.6284156e-06
0.0067984303
5.6418086e-06
0.0098941398
6.20112e-06
0.012008235
5.2641362e-06
0.013303719
3.4122655e-06
0.013919305
1.4369505e-06
0.013958419
3.9492215e-08
0.01347353
-4.1164846e-07
0.012420278
0.010370275
8.8702851e-07
0.0025477773
2.7155237e-06
0.0067966018
4.0895048e-06
0.0098927658
4.2444717e-06
0.01200808
3.2291838e-06
0.013304735
1.6033931e-06
0.013920931
7.4222244e-08
0.013959948
-7.9620197e-07
0.013474401
-7.7045245e-07
0.012420253
0.010369504
6.4324395e-07
0.0025471341
1.9207449e-06
0.0067953243
2.7441904e-06
0.0098919424
2.563219e-06
0.012008261
1.5050723e-06
0.013305793
1.0639391e-07
0.01392233
-1.0299439e-06
0.013961085
-1.4655337e-06
0.013474836
-1.0490878e-06
0.012419836
0.010368455
4.3293254e-07
0.0025467011
1.2371353e-06
0.0067945201
1.5946376e-06
0.0098915849
1.1435135e-06
0.012008712
7.8351289e-08
0.013306858
-1.1089822e-06
0.013923517
-1.912547e-06
0.013961888
-1.9818809e-06
0.013474905
-1.2538288e-06
0.012419108
0.010367201
2.5374808e-07
0.0025464474
6.5738009e-07
0.0067941165
6.2935929e-07
0.0098916129
-2.8970972e-08
0.01200937
-1.0807744e-06
0.01330791
-2.080607e-06
0.013924517
-2.5939837e-06
0.013962402
-2.3605531e-06
0.013474672
-1.3929417e-06
0.012418141
0.010365808
1.0342757e-07
0.002546344
1.7441731e-07
0.0067940455
-1.6520208e-07
0.0098919525
-9.8095396e-07
0.012010186
-2.0076685e-06
0.013308936
-2.8323912e-06
0.013925342
-3.09555e-06
0.013962665
-2.6181118e-06
0.013474195
-1.4753335e-06
0.012416998
0.010364333
-2.0519062e-08
0.0025463645
-2.2103305e-07
0.006794246
-8.0906718e-07
0.0098925405
-1.7415562e-06
0.012011118
-2.7257653e-06
0.013309921
-3.3882069e-06
0.013926004
-3.4393192e-06
0.013962716
-2.7714271e-06
0.013473527
-1.5099749e-06
0.012415736
0.010362823
-1.2111126e-07
0.0025464856
-5.3981187e-07
0.0067946647
-1.321025e-06
0.0098933218
-2.3299565e-06
0.012012127
-3.2580369e-06
0.013310849
-3.7721841e-06
0.013926518
-3.647182e-06
0.013962591
-2.8368663e-06
0.013472716
-1.5053224e-06
0.012414405
0.010361318
-2.0113842e-07
0.0025466867
-7.9066713e-07
0.0067952542
-1.7147762e-06
0.0098942459
-2.765444e-06
0.012013178
-3.6273341e-06
0.013311711
-4.0078796e-06
0.013926899
-3.740117e-06
0.013962323
-2.8297976e-06
0.013471806
-1.4692005e-06
0.012413044
0.010359848
-2.6285188e-07
0.0025469496
-9.8100502e-07
0.0067959724
-2.0038094e-06
0.0098952687
-3.0668297e-06
0.012014241
-3.8556712e-06
0.013312499
-4.1176217e-06
0.013927161
-3.737613e-06
0.013961943
-2.7641746e-06
0.013470833
-1.4084928e-06
0.012411688
0.01035844
-3.0838072e-07
0.002547258
-1.1179848e-06
0.006796782
-2.2011701e-06
0.0098963518
-3.2521534e-06
0.012015292
-3.9639187e-06
0.013313211
-4.1222247e-06
0.013927319
-3.6574953e-06
0.013961478
-2.6524938e-06
0.013469828
-1.3292699e-06
0.012410365
0.010357111
-3.3973645e-07
0.0025475977
-1.2084327e-06
0.0067976507
-2.3192714e-06
0.0098974627
-3.338441e-06
0.012016311
-3.9715152e-06
0.013313844
-4.040765e-06
0.013927388
-3.5157677e-06
0.013960953
-2.5057079e-06
0.013468818
-1.2366894e-06
0.012409096
0.010355874
-3.5882433e-07
0.0025479565
-1.2588166e-06
0.0067985506
-2.3698292e-06
0.0098985737
-3.341623e-06
0.012017283
-3.8964216e-06
0.013314399
-3.8905826e-06
0.013927382
-3.3267195e-06
0.013960389
-2.3334229e-06
0.013467824
-1.1352081e-06
0.012407898
0.010354739
-3.6743174e-07
0.002548324
-1.2752015e-06
0.0067994584
-2.3637762e-06
0.0098996623
-3.276434e-06
0.012018196
-3.7550421e-06
0.013314878
-3.6872685e-06
0.013927315
-3.1029723e-06
0.013959805
-2.1439422e-06
0.013466865
-1.0285699e-06
0.012406783
0.01035371
-3.6723179e-07
0.0025486912
-1.2632459e-06
0.0068003544
-2.3112515e-06
0.0099007103
-3.1564049e-06
0.012019041
-3.5622577e-06
0.013315284
-3.4447689e-06
0.013927197
-2.8556419e-06
0.013959216
-1.9444884e-06
0.013465954
-9.2003368e-07
0.012405758
0.01035279
-3.5976642e-07
0.002549051
-1.2281615e-06
0.0068012228
-2.2215328e-06
0.0099017036
-2.9937919e-06
0.012019813
-3.3313591e-06
0.013315621
-3.1753434e-06
0.013927041
-2.5943381e-06
0.013958635
-1.7411855e-06
0.013465101
-8.1226188e-07
0.012404829
0.010351978
-3.4645151e-07
0.0025493974
-1.1747035e-06
0.0068020511
-2.1030124e-06
0.009902632
-2.7995437e-06
0.01202051
-3.0740436e-06
0.013315896
-2.8895949e-06
0.013926857
-2.327215e-06
0.013958073
-1.5391427e-06
0.013464313
-7.0749366e-07
0.012403998
0.01035127
-3.2856e-07
0.002549726
-1.1071344e-06
0.0068028297
-1.9631325e-06
0.009903488
-2.5832238e-06
0.01202113
-2.8003282e-06
0.013316113
-2.5963837e-06
0.013926653
-2.0608892e-06
0.013957537
-1.3423472e-06
0.013463594
-6.0736658e-07
0.012403263
0.010350663
-3.0723122e-07
0.0025500332
-1.0292332e-06
0.0068035517
-1.8084092e-06
0.0099042671
-2.3530542e-06
0.012021674
-2.5186289e-06
0.013316278
-2.3029426e-06
0.013926437
-1.8005593e-06
0.013957035
-1.1537916e-06
0.013462948
-5.1305159e-07
0.012402622
0.01035015
-2.8346879e-07
0.0025503167
-9.4430214e-07
0.0068042125
-1.6444515e-06
0.0099049673
-2.1159741e-06
0.012022146
-2.235863e-06
0.013316398
-2.0150098e-06
0.013926216
-1.5501536e-06
0.01395657
-9.7555543e-07
0.013462373
-4.2523958e-07
0.012402072
0.010349725
-2.5815557e-07
0.0025505748
-8.552121e-07
0.0068048096
-1.4760669e-06
0.0099055881
-1.8778214e-06
0.012022548
-1.9577154e-06
0.013316478
-1.7371575e-06
0.013925996
-1.3126576e-06
0.013956145
-8.0911026e-07
0.013461869
-3.4435925e-07
0.012401607
0.01034938
-2.3205951e-07
0.0025508069
-7.6444171e-07
0.0068053419
-1.307355e-06
0.0099061311
-1.6434953e-06
0.012022884
-1.6888638e-06
0.013316523
-1.4730564e-06
0.01392578
-1.0904054e-06
0.013955763
-6.5554715e-07
0.013461435
-2.7067381e-07
0.012401222
0.01034911
-2.0584543e-07
0.0025510127
-6.7411826e-07
0.0068058102
-1.1417959e-06
0.0099065987
-1.4171008e-06
0.012023159
-1.4331762e-06
0.01331654
-1.2257069e-06
0.013925572
-8.8527051e-07
0.013955422
-5.1575551e-07
0.013461065
-2.0444193e-07
0.012400911
0.010348905
-1.8007021e-07
0.0025511928
-5.8602342e-07
0.0068062162
-9.8227133e-07
0.009906995
-1.20198e-06
0.012023379
-1.1937267e-06
0.013316531
-9.9742552e-07
0.013925376
-6.9867082e-07
0.013955124
-3.9037626e-07
0.013460757
-1.4581808e-07
0.012400666
0.010348759
-1.5519244e-07
0.002551348
-5.0160676e-07
0.0068065626
-8.3108396e-07
0.0099073245
-1.0007236e-06
0.012023548
-9.7280624e-07
0.013316503
-7.8982721e-07
0.013925193
-5.3148262e-07
0.013954865
-2.7973669e-07
0.013460505
-9.4879959e-08
0.012400481
0.010348665
-1.3156074e-07
0.0025514796
-4.2196204e-07
0.006806853
-6.899005e-07
0.0099075924
-8.1507954e-07
0.012023674
-7.7175879e-07
0.01331646
-6.0362006e-07
0.013925025
-3.8382195e-07
0.013954645
-1.8362432e-07
0.013460305
-5.1400857e-08
0.012400349
0.010348613
-1.0942905e-07
0.002551589
-3.4785237e-07
0.0068070914
-5.5979922e-07
0.0099078044
-6.4600576e-07
0.01202376
-5.9105414e-07
0.013316405
-4.3865172e-07
0.013924872
-2.550538e-07
0.013954462
-1.0121596e-07
0.013460151
-1.4418171e-08
0.012400262
0.010348599
-8.8967435e-08
0.002551678
-2.7975568e-07
0.0068072822
-4.4135071e-07
0.009907966
-4.9380222e-07
0.012023812
-4.3045916e-07
0.013316342
-2.9412421e-07
0.013924736
-1.4396583e-07
0.013954312
-3.0982483e-08
0.013460038
1.6756677e-08
0.012400214
0.010348615
-7.0281126e-08
0.0025517482
-2.1792977e-07
0.0068074298
-3.3475964e-07
0.0099080828
-3.5833033e-07
0.012023836
-2.8931159e-07
0.013316273
-1.6883605e-07
0.013924616
-4.8858778e-08
0.013954192
2.8283986e-08
0.013459961
4.1998599e-08
0.012400201
0.010348657
-5.3430612e-08
0.0025518017
-1.6247944e-07
0.0068075389
-2.3998342e-07
0.0099081603
-2.3917814e-07
0.012023835
-1.666959e-07
0.0133162
-6.130664e-08
0.01392451
3.1623537e-08
0.013954099
7.684835e-08
0.013459916
6.1740857e-08
0.012400216
0.010348719
-3.8436616e-08
0.0025518401
-1.1339494e-07
0.0068076139
-1.5681352e-07
0.0099082037
-1.3575894e-07
0.012023814
-6.1497873e-08
0.013316126
2.9656584e-08
0.013924419
9.7778655e-08
0.013954031
1.1528458e-07
0.013459898
7.6816963e-08
0.012400254
0.010348796
-2.529112e-08
0.0025518654
-7.058276e-08
0.0068076591
-8.4916779e-08
0.009908218
-4.7303105e-08
0.012023776
2.7188514e-08
0.013316052
1.0427465e-07
0.013924342
1.5008735e-07
0.013953985
1.4456283e-07
0.013459904
8.7737756e-08
0.012400311
0.010348884
-1.3950452e-08
0.0025518793
-3.3842429e-08
0.006807679
-2.3746916e-08
0.009908208
2.6863472e-08
0.012023726
9.9614987e-08
0.013315979
1.6303956e-07
0.013924279
1.8965882e-07
0.013953958
1.65469e-07
0.013459928
9.4871465e-08
0.012400382
0.010348979
-4.3227773e-09
0.0025518837
-2.8335744e-09
0.0068076776
2.7159848e-08
0.009908178
8.7082822e-08
0.012023666
1.5643186e-07
0.013315909
2.0729567e-07
0.013924228
2.1766955e-07
0.013953948
1.7881405e-07
0.013459967
9.8581042e-08
0.012400462
0.010349077
3.6839917e-09
0.00255188
2.2690365e-08
0.0068076586
6.8172914e-08
0.0099081325
1.3414829e-07
0.0120236
1.9913721e-07
0.013315844
2.3858212e-07
0.013924188
2.3545142e-07
0.013953951
1.8551409e-07
0.013460017
9.9281317e-08
0.012400548
0.010349176
1.0163171e-08
0.0025518698
4.3030148e-08
0.0068076257
1.0008925e-07
0.0099080754
1.695135e-07
0.01202353
2.2947029e-07
0.013315785
2.5868633e-07
0.013924159
2.4457188e-07
0.013953965
1.8668529e-07
0.013460075
9.7508931e-08
0.012400637
0.010349274
1.5255105e-08
0.0025518546
5.8737731e-08
0.0068075822
1.2401069e-07
0.0099080102
1.9474815e-07
0.01202346
2.4929711e-07
0.01331573
2.6951712e-07
0.013924139
2.4671526e-07
0.013953988
1.8355885e-07
0.013460138
9.3897525e-08
0.012400727
0.010349368
1.9120266e-08
0.0025518354
7.0399568e-08
0.0068075309
1.4104875e-07
0.0099079395
2.1141768e-07
0.012023389
2.6044549e-07
0.013315681
2.7291928e-07
0.013924126
2.4349293e-07
0.013954017
1.7729847e-07
0.013460204
8.9027208e-08
0.012400815
0.010349457
2.1918394e-08
0.0025518135
7.8578951e-08
0.0068074743
1.5225417e-07
0.0099078658
2.2097358e-07
0.012023321
2.6458259e-07
0.013315637
2.7054381e-07
0.01392412
2.3632272e-07
0.013954052
1.6893843e-07
0.013460271
8.3459837e-08
0.012400901
0.01034954
2.378382e-08
0.0025517897
8.3763458e-08
0.0068074143
1.5851625e-07
0.0099077911
2.2460832e-07
0.012023254
2.6301323e-07
0.013315599
2.6361513e-07
0.01392412
2.2619128e-07
0.013954089
1.5913386e-07
0.013460338
7.747804e-08
0.012400983
0.010349618
2.4843181e-08
0.0025517649
8.6381341e-08
0.0068073527
1.6059011e-07
0.0099077169
2.2329585e-07
0.012023192
2.5676569e-07
0.013315565
2.530459e-07
0.013924124
2.1379249e-07
0.013954128
1.4831321e-07
0.013460404
7.1292664e-08
0.01240106
0.010349689
2.5200837e-08
0.0025517397
8.6784258e-08
0.0068072912
1.5907822e-07
0.0099076446
2.1777989e-07
0.012023133
2.465686e-07
0.013315537
2.3941935e-07
0.013924131
1.9948431e-07
0.013954168
1.3662005e-07
0.013460467
6.4908163e-08
0.012401131
0.010349754
2.4958599e-08
0.0025517147
8.5296486e-08
0.0068072308
1.5451703e-07
0.0099075754
2.0870842e-07
0.012023079
2.3304611e-07
0.013315512
2.232192e-07
0.013924141
1.8355238e-07
0.013954208
1.2415962e-07
0.013460526
5.832578e-08
0.012401197
0.010349812
2.4215441e-08
0.0025516905
8.2225477e-08
0.0068071728
1.4741948e-07
0.0099075102
1.9670634e-07
0.01202303
2.1681401e-07
0.013315492
2.0494247e-07
0.013924152
1.6631528e-07
0.013954247
1.1106545e-07
0.013460581
5.1547944e-08
0.012401257
0.010349864
2.3071393e-08
0.0025516675
7.7888468e-08
0.006807118
1.3831857e-07
0.0099074497
1.8244606e-07
0.012022985
1.9856726e-07
0.013315476
1.8520767e-07
0.013924166
1.4823391e-07
0.013954283
9.7606944e-08
0.013460632
4.4673874e-08
0.01240131
0.010349909
2.1627915e-08
0.0025516458
7.2608674e-08
0.006807067
1.2777284e-07
0.0099073946
1.6665008e-07
0.012022947
1.7908754e-07
0.013315464
1.6473883e-07
0.01392418
1.2989489e-07
0.013954318
8.4177562e-08
0.013460678
3.7889265e-08
0.012401356
0.010349946
1.9980626e-08
0.0025516258
6.6703727e-08
0.0068070203
1.1633684e-07
0.0099073449
1.5004626e-07
0.012022913
1.5916988e-07
0.013315455
1.4429877e-07
0.013924195
1.1193743e-07
0.013954351
7.1230408e-08
0.013460718
3.141778e-08
0.012401396
0.010349978
1.8214994e-08
0.0025516076
6.046103e-08
0.006806978
1.0451634e-07
0.0099073009
1.3329362e-07
0.012022884
1.3953142e-07
0.013315448
1.2456444e-07
0.01392421
9.4923437e-08
0.01395438
5.916581e-08
0.013460754
2.546772e-08
0.012401429
0.010350003
1.6400196e-08
0.0025515912
5.4118216e-08
0.0068069403
9.2720261e-08
0.0099072623
1.1690896e-07
0.01202286
1.2071045e-07
0.013315444
1.0602329e-07
0.013924225
7.9243932e-08
0.013954407
4.8248392e-08
0.013460785
2.0180598e-08
0.012401457
0.010350024
1.4587691e-08
0.0025515766
4.7849595e-08
0.0068069071
8.1241366e-08
0.0099072289
1.0123879e-07
0.01202284
1.0303364e-07
0.013315443
8.8929311e-08
0.013924239
6.5058411e-08
0.013954431
3.8569908e-08
0.013460812
1.5588045e-08
0.01240148
0.010350039
1.281139e-08
0.0025515638
4.1768681e-08
0.0068068781
7.0250343e-08
0.0099072004
8.6455734e-08
0.012022824
8.6619567e-08
0.013315443
7.3316084e-08
0.013924252
5.2328048e-08
0.013954452
3.004403e-08
0.013460834
1.1630356e-08
0.012401499
0.010350051
1.1095574e-08
0.0025515527
3.5945091e-08
0.0068068533
5.98391e-08
0.0099071765
7.2623798e-08
0.012022811
7.1458436e-08
0.013315444
5.9089878e-08
0.013924264
4.0895901e-08
0.01395447
2.2512163e-08
0.013460852
8.2001608e-09
0.012401513
0.010350059
9.4557528e-09
0.0025515433
3.0418543e-08
0.0068068323
5.0044449e-08
0.0099071569
5.9735812e-08
0.012022801
5.7477619e-08
0.013315446
4.6106167e-08
0.013924276
3.0571798e-08
0.013954486
1.5783653e-08
0.013460867
5.1725583e-09
0.012401524
0.010350064
7.9032223e-09
0.0025515354
2.5215866e-08
0.006806815
4.0891742e-08
0.0099071412
4.7792952e-08
0.012022794
4.4630558e-08
0.013315449
3.4271273e-08
0.013924286
2.1225439e-08
0.013954499
9.720343e-09
0.013460879
2.4477819e-09
0.012401531
0.010350067
6.4622858e-09
0.0025515289
2.0392187e-08
0.006806801
3.2485125e-08
0.0099071291
3.6968872e-08
0.01202279
3.3170763e-08
0.013315453
2.3900776e-08
0.013924295
1.319191e-08
0.013954509
4.6130865e-09
0.013460887
2.0268671e-10
0.012401535
0.010350067
2.9083576e-09
9.1636737e-09
1.4463715e-08
1.6228603e-08
1.4215167e-08
9.865374e-09
5.0055907e-09
1.3166894e-09
-3.8949613e-10
)
;

boundaryField
{
    water_inlet
    {
        type            calculated;
        value           nonuniform List<scalar> 10(-0.0021750989 -0.0058428937 -0.0086267772 -0.010688211 -0.012161792 -0.013159549 -0.01377456 -0.014084001 -0.014151716 -0.014030398);
    }
    water_outlet
    {
        type            calculated;
        value           nonuniform List<scalar> 10(0.002551526 0.0068067948 0.0099071238 0.012022788 0.013315455 0.0139243 0.013954514 0.013460891 0.012401537 0.010350066);
    }
    water_wedge1
    {
        type            wedge;
        value           nonuniform List<scalar> 
1000
(
-1.129605e-13
-1.426772e-13
-1.12164e-13
-1.063123e-13
-9.9354921e-14
-9.3390243e-14
-8.8693061e-14
-8.4953942e-14
-8.1973373e-14
-7.9490588e-14
-7.7281612e-14
-7.5239505e-14
-7.3267849e-14
-7.1277166e-14
-6.9183173e-14
-6.6855635e-14
-6.4132896e-14
-6.0816954e-14
-5.6669731e-14
-5.1409248e-14
-4.4793039e-14
-3.6659684e-14
-2.707798e-14
-1.6554692e-14
-5.8609869e-15
4.0606805e-15
1.2367741e-14
1.86693e-14
2.2898525e-14
2.5296787e-14
2.6222297e-14
2.6008597e-14
2.5031289e-14
2.3516636e-14
2.1681175e-14
1.9699945e-14
1.7625194e-14
1.5587766e-14
1.3613433e-14
1.1732981e-14
1.0000814e-14
8.3891766e-15
6.9289541e-15
5.6183509e-15
4.4430258e-15
3.402134e-15
2.4919433e-15
1.7109722e-15
1.0460786e-15
4.8401301e-16
1.5754566e-17
-3.6764187e-16
-6.7634976e-16
-9.1122165e-16
-1.0858758e-15
-1.211475e-15
-1.2879748e-15
-1.3222213e-15
-1.3264314e-15
-1.3135607e-15
-1.2737126e-15
-1.2021753e-15
-1.1309617e-15
-1.0485922e-15
-9.578793e-16
-8.6198514e-16
-7.6438461e-16
-6.7353295e-16
-5.8016829e-16
-5.0279093e-16
-4.1852052e-16
-3.3824722e-16
-2.6904879e-16
-2.0615758e-16
-1.5731957e-16
-1.0766825e-16
-6.0012568e-17
-2.472493e-17
-2.1053988e-18
2.572982e-17
5.0829138e-17
5.7792504e-17
6.9766887e-17
8.3435306e-17
8.2548551e-17
8.2451472e-17
8.5040421e-17
8.4990232e-17
8.1901975e-17
7.4616277e-17
7.0455208e-17
6.5109917e-17
5.7766018e-17
5.1229939e-17
4.3099573e-17
3.8181968e-17
3.2903698e-17
2.6621702e-17
2.2664844e-17
1.0521669e-17
-6.8081188e-13
-1.0335444e-12
-8.3929068e-13
-7.9752772e-13
-7.4939779e-13
-7.0313694e-13
-6.6536391e-13
-6.3522875e-13
-6.1093741e-13
-5.9052951e-13
-5.7244961e-13
-5.5560574e-13
-5.3912491e-13
-5.221992e-13
-5.0397456e-13
-4.8343166e-13
-4.5934201e-13
-4.3018585e-13
-3.9436603e-13
-3.5055384e-13
-2.9813528e-13
-2.3765049e-13
-1.7103303e-13
-1.0155619e-13
-3.3369853e-14
2.8948187e-14
8.1483491e-14
1.2214494e-13
1.5063345e-13
1.6797313e-13
1.7589544e-13
1.7635446e-13
1.7126938e-13
1.6227181e-13
1.5072887e-13
1.3769265e-13
1.2392594e-13
1.1003933e-13
9.643837e-14
8.3436005e-14
7.1227512e-14
5.9903775e-14
4.9554624e-14
4.0198863e-14
3.1829715e-14
2.4424277e-14
1.793439e-14
1.231566e-14
7.5117334e-15
3.4675793e-15
1.1466345e-16
-2.6178064e-15
-4.8027113e-15
-6.5011929e-15
-7.7689316e-15
-8.6594998e-15
-9.215593e-15
-9.4916925e-15
-9.5308087e-15
-9.3820776e-15
-9.0688512e-15
-8.6178009e-15
-8.0836037e-15
-7.4822696e-15
-6.8362834e-15
-6.1627648e-15
-5.4784351e-15
-4.809294e-15
-4.1579016e-15
-3.5433854e-15
-2.9634581e-15
-2.4181076e-15
-1.9231531e-15
-1.4775941e-15
-1.0795074e-15
-7.3319447e-16
-4.2974783e-16
-1.6975065e-16
4.9533087e-17
2.2372382e-16
3.5854958e-16
4.6765802e-16
5.436584e-16
5.9624111e-16
6.324515e-16
6.4579586e-16
6.3967434e-16
6.2441288e-16
5.9613486e-16
5.5919147e-16
5.1904376e-16
4.7717362e-16
4.3067528e-16
3.8318045e-16
3.3679447e-16
2.8878011e-16
2.4758654e-16
2.0685404e-16
1.6866029e-16
9.7517264e-17
3.1339117e-12
4.8023023e-12
3.9072346e-12
3.7113871e-12
3.4900547e-12
3.2689361e-12
3.086025e-12
2.9387855e-12
2.8176163e-12
2.7124733e-12
2.6152676e-12
2.5197164e-12
2.4205064e-12
2.3123537e-12
2.18949e-12
2.0461093e-12
1.877488e-12
1.681095e-12
1.4574189e-12
1.2105422e-12
9.480862e-13
6.8016673e-13
4.1760191e-13
1.7020472e-13
-5.3287462e-14
-2.4552101e-13
-4.0214869e-13
-5.2203154e-13
-6.063667e-13
-6.5807225e-13
-6.8130018e-13
-6.8087854e-13
-6.6176823e-13
-6.2867663e-13
-5.8577979e-13
-5.3662246e-13
-4.8410641e-13
-4.3048573e-13
-3.77482e-13
-3.263608e-13
-2.780148e-13