/*--------------------------------*- C++ -*----------------------------------*\
| =========                 |                                                 |
| \\      /  F ield         | OpenFOAM: The Open Source CFD Toolbox           |
|  \\    /   O peration     | Version:  2506                                  |
|   \\  /    A nd           | Website:  www.openfoam.com                      |
|    \\/     M anipulation  |                                                 |
\*---------------------------------------------------------------------------*/
FoamFile
{
    version     2.0;
    format      ascii;
    arch        "LSB;label=32;scalar=64";
    class       volVectorField;
    location    "6000/water";
    object      U;
}
// * * * * * * * * * * * * * * * * * * * * * * * * * * * * * * * * * * * * * //

dimensions      [0 1 -1 0 0 0 0];

internalField   nonuniform List<vector> 
1000
(
(0.25225587 -0.00012859767 2.2056363e-18)
(0.25226258 -0.00027067836 5.1063007e-19)
(0.25227485 -0.0004145054 1.8649669e-18)
(0.25228819 -0.00055572716 3.8001894e-19)
(0.25229018 -0.0006857579 4.6411655e-19)
(0.25223998 -0.00079863173 -2.4766333e-20)
(0.25200713 -0.00089615194 -7.0230355e-20)
(0.25115686 -0.0010460356 -3.490247e-19)
(0.24780473 -0.0012820719 -1.1657777e-19)
(0.23308261 0.0010121611 -4.5420717e-19)
(0.25653043 -7.7330452e-05 1.9416807e-18)
(0.25653977 -0.0001890383 1.0577052e-18)
(0.25655871 -0.00029096536 2.0091353e-18)
(0.25657276 -0.00039024486 7.7250783e-19)
(0.25654377 -0.00048175038 1.682633e-19)
(0.25636039 -0.00055898442 -1.2860449e-20)
(0.25570613 -0.00060536499 -6.8965053e-20)
(0.25355952 -0.0006544137 -4.7725941e-19)
(0.24574266 -0.00084724787 -2.8922454e-19)
(0.21968686 0.00025718802 -5.4134226e-19)
(0.26021787 -7.3909973e-05 -1.8555272e-19)
(0.26022468 -0.0001805983 4.4395483e-19)
(0.26023383 -0.00027741906 7.059944e-19)
(0.26021807 -0.00037159734 6.6801378e-19)
(0.26010153 -0.00045735762 -4.4472277e-19)
(0.25968006 -0.00053044584 -1.7441988e-19)
(0.25840621 -0.00057093077 -1.5986248e-19)
(0.25452353 -0.00056554727 -3.8094548e-19)
(0.24186464 -0.00061987662 -5.0623496e-19)
(0.20839344 1.1252466e-05 -5.218002e-19)
(0.26340526 -6.8945957e-05 -8.8691897e-19)
(0.26340956 -0.00017058502 2.8568238e-19)
(0.26340596 -0.00026279217 5.1409645e-19)
(0.2633478 -0.00035138351 2.0915228e-19)
(0.26310913 -0.00042951115 -1.423441e-19)
(0.26237282 -0.00049394954 -3.058824e-19)
(0.26030372 -0.00052750899 -2.9619618e-19)
(0.25430845 -0.00049289742 -3.7258863e-19)
(0.23723183 -0.00045934041 -4.6428e-19)
(0.19958845 -4.8875363e-05 -4.4643381e-19)
(0.26641628 -6.4388936e-05 -1.5133706e-18)
(0.26641555 -0.00015946867 6.8151458e-19)
(0.266392 -0.00024539847 6.9813592e-19)
(0.26627267 -0.00032748754 8.0477434e-20)
(0.26586988 -0.00039791735 8.1265149e-20)
(0.26472852 -0.00045250599 6.8291475e-21)
(0.26164541 -0.00047360776 -1.1375268e-19)
(0.25321248 -0.00041483577 -3.4865225e-19)
(0.23271016 -0.00033458996 -4.5006726e-19)
(0.19329514 -5.0631038e-05 -3.7930419e-19)
(0.26927573 -6.0867547e-05 4.6707283e-19)
(0.26926715 -0.0001502433 5.3015507e-19)
(0.2692148 -0.00023070447 1.1107333e-18)
(0.26901237 -0.00030702746 3.6731181e-19)
(0.26839647 -0.0003705002 -7.8089658e-20)
(0.26673517 -0.00041493279 1.7305442e-20)
(0.26236788 -0.00041871899 -1.226549e-19)
(0.25136278 -0.00033835051 -3.6188368e-19)
(0.22869803 -0.00023662885 -2.1699825e-19)
(0.1890213 -3.9493972e-05 -2.5261388e-19)
(0.27197991 -5.8057602e-05 2.919389e-18)
(0.27196006 -0.00014287149 1.8247841e-18)
(0.27186829 -0.00021894856 1.7743348e-19)
(0.2715565 -0.00029030384 5.2480708e-19)
(0.27066607 -0.0003472904 -1.6076631e-19)
(0.2683315 -0.00038068376 -1.0976936e-19)
(0.26239846 -0.0003643744 -3.2906586e-19)
(0.24902639 -0.00026852742 -2.6241801e-19)
(0.22536103 -0.0001627295 -5.0213253e-20)
(0.18616829 -2.8775496e-05 -2.5628545e-19)
(0.27455816 -5.5861861e-05 -4.3585099e-19)
(0.27452281 -0.0001370322 1.4526201e-18)
(0.27437848 -0.00020952032 1.9147713e-19)
(0.27392442 -0.00027640528 4.9129929e-19)
(0.27267855 -0.00032682134 2.5522523e-19)
(0.26947683 -0.00034738507 1.1284959e-19)
(0.26178463 -0.00031092823 -5.4564517e-20)
(0.24657381 -0.00020817062 -2.2312664e-19)
(0.22271523 -0.0001105025 -3.3046892e-19)
(0.18425842 -2.0837634e-05 -3.1371419e-19)
(0.27704027 -5.4085701e-05 -1.3979241e-19)
(0.27698407 -0.00013225435 7.4568272e-19)
(0.27677058 -0.00020162575 8.6963314e-19)
(0.2761317 -0.00026417296 3.2279458e-19)
(0.27442311 -0.00030720601 3.4881411e-19)
(0.27014169 -0.000312948 1.6458895e-19)
(0.26068996 -0.00025925828 1.0898333e-20)
(0.24429833 -0.00015836475 -1.0896475e-19)
(0.22067584 -7.5408494e-05 -1.1773782e-19)
(0.18296199 -1.5153226e-05 -9.4601681e-20)
(0.27944341 -5.2555703e-05 3.4621116e-18)
(0.27935956 -0.00012814127 2.2683562e-18)
(0.27905543 -0.00019460745 4.1502437e-19)
(0.27817576 -0.00025259237 5.1425196e-19)
(0.27586796 -0.00028673459 2.0373216e-19)
(0.27032642 -0.00027659207 -6.2094002e-20)
(0.259335 -0.00021094016 -1.7440889e-19)
(0.24234215 -0.00011891183 -8.7775448e-20)
(0.21912382 -5.2171507e-05 -8.5300061e-20)
(0.18206597 -1.0945096e-05 -1.6551148e-19)
(0.28177654 -5.1166642e-05 1.5650621e-18)
(0.2816562 -0.00012441967 7.825768e-19)
(0.28123331 -0.00018797298 -2.4063092e-19)
(0.28003902 -0.00024077468 8.7211502e-19)
(0.27697398 -0.00026417663 3.0063191e-19)
(0.27008761 -0.00023880415 -2.0416688e-19)
(0.25792266 -0.00016762326 -2.790617e-19)
(0.24073179 -8.8481484e-05 -3.2096151e-19)
(0.2179502 -3.6445932e-05 -2.9470545e-19)
(0.18143934 -7.6992212e-06 -1.8486531e-19)
(0.28404476 -4.9854747e-05 1.6334395e-18)
(0.28387626 -0.00012089419 7.9575675e-19)
(0.2832974 -0.00018132914 1.6901009e-19)
(0.28169345 -0.00022787731 4.3465324e-19)
(0.27771473 -0.00023897409 2.3930562e-19)
(0.26953508 -0.00020087573 -7.0523426e-20)
(0.25659136 -0.00013036544 -2.0865588e-19)
(0.2394378 -6.5171887e-05 -2.9109098e-19)
(0.21706901 -2.5326009e-05 -2.1947107e-19)
(0.18100323 -5.1224292e-06 -2.0104511e-19)
(0.28625048 -4.8572062e-05 1.9348792e-18)
(0.28601827 -0.00011740087 7.5033229e-19)
(0.28523428 -0.00017430192 5.4553146e-19)
(0.28310495 -0.00021314207 8.2753707e-19)
(0.27809438 -0.00021129081 2.9733767e-19)
(0.26879939 -0.00016439835 2.9321478e-20)
(0.2554109 -9.9329691e-05 -1.3579792e-20)
(0.23841399 -4.7156169e-05 -1.2310951e-19)
(0.21641538 -1.7079274e-05 -8.0292308e-20)
(0.18070892 -3.0438769e-06 -1.3980254e-19)
(0.28839354 -4.7270903e-05 3.8200079e-19)
(0.28807682 -0.00011377564 9.4211978e-19)
(0.28702343 -0.00016645971 6.2643648e-19)
(0.28424079 -0.00019602595 7.7826742e-19)
(0.27815548 -0.00018188526 1.1958893e-19)
(0.26799598 -0.00013078962 -9.4001016e-20)
(0.25440305 -7.39371e-05 -3.7806598e-19)
(0.23761476 -3.300384e-05 -1.853652e-19)
(0.21594074 -1.0715912e-05 -2.072142e-19)
(0.18052448 -1.3527184e-06 -2.1314527e-19)
(0.29047097 -4.5891376e-05 8.7187673e-19)
(0.29004195 -0.0001098289 3.0315028e-18)
(0.2886378 -0.00015729278 6.0496706e-19)
(0.28508025 -0.00017633822 -1.0848767e-19)
(0.27797082 -0.00015188677 -5.5922262e-20)
(0.26720623 -0.00010094628 -8.550374e-20)
(0.253564 -5.325848e-05 -2.0631099e-19)
(0.23700053 -2.1698411e-05 -1.6752666e-19)
(0.21560861 -5.6593815e-06 -2.8124639e-19)
(0.18042758 3.4159422e-08 -1.197968e-19)
(0.29247637 -4.4351447e-05 1.0273141e-18)
(0.29189831 -0.00010531312 3.7815259e-19)
(0.29004632 -0.00014628163 4.3344419e-19)
(0.28562472 -0.00015430604 9.3642205e-19)
(0.27762408 -0.00012253886 2.1850181e-19)
(0.26647731 -7.5147438e-05 -1.9407933e-20)
(0.25287922 -3.6357687e-05 1.4724824e-19)
(0.23653861 -1.2544512e-05 2.8529344e-20)
(0.21539111 -1.5277852e-06 1.2244721e-20)
(0.18040203 1.2056566e-06 1.237356e-19)
(0.29439899 -4.254254e-05 7.9547929e-19)
(0.2936244 -9.989426e-05 3.4550904e-19)
(0.2912191 -0.0001330299 6.4560278e-19)
(0.28590174 -0.0001305449 9.1914926e-19)
(0.27719084 -9.4943571e-05 4.1156262e-19)
(0.26583132 -5.319796e-05 2.1495693e-19)
(0.25233095 -2.2452806e-05 1.1362874e-20)
(0.23620235 -5.0207146e-06 -4.2138178e-20)
(0.2152645 1.8970549e-06 -5.4736658e-20)
(0.18043773 2.1932395e-06 -1.4949852e-19)
(0.29622247 -4.0322119e-05 1.0331155e-18)
(0.29519257 -9.3155004e-05 2.0702281e-19)
(0.29213504 -0.00011739263 2.6436332e-19)
(0.28595989 -0.00010594313 4.9873755e-19)
(0.27672821 -6.9856864e-05 2.7851235e-19)
(0.26527515 -3.464914e-05 3.123685e-19)
(0.25190109 -1.0910898e-05 1.7617776e-19)
(0.23596806 1.2315167e-06 3.2645501e-20)
(0.21521692 4.7055396e-06 -1.3208393e-19)
(0.18052214 2.9882005e-06 -1.3296067e-19)
(0.29792333 -3.7501108e-05 1.6974072e-18)
(0.29657067 -8.4660013e-05 1.3003562e-18)
(0.29278918 -9.9551778e-05 2.2889727e-19)
(0.28585702 -8.1495842e-05 3.8727756e-19)
(0.27627357 -4.7619003e-05 2.9726182e-19)
(0.26480713 -1.8983636e-05 2.019218e-19)
(0.25157193 -1.2537906e-06 -1.5212841e-19)
(0.23582161 6.4205699e-06 -4.0823896e-21)
(0.21523437 6.9889953e-06 -4.4207578e-21)
(0.18064613 3.6201549e-06 -1.8310229e-19)
(0.2994698 -3.3841402e-05 -1.4611887e-18)
(0.29772602 -7.4079807e-05 2.2237808e-18)
(0.29319629 -8.0019337e-05 2.8354119e-19)
(0.28564804 -5.812551e-05 -1.7680183e-18)
(0.27584861 -2.8224753e-05 -3.2624462e-19)
(0.2644212 -5.6898609e-06 -2.7068562e-19)
(0.25132937 6.8565243e-06 -3.0831177e-19)
(0.23575038 1.0705029e-05 -2.0183823e-19)
(0.21530525 8.8451327e-06 -1.4593023e-19)
(0.18080244 4.1235205e-06 -5.6808626e-20)
(0.30082181 -2.909464e-05 -4.2917686e-19)
(0.29863172 -6.1331817e-05 7.2513747e-19)
(0.29338823 -5.9566785e-05 -5.3799003e-19)
(0.28537719 -3.6522193e-05 -1.0439984e-18)
(0.27546384 -1.1416723e-05 -4.2756106e-19)
(0.26410765 5.6167873e-06 -2.3217824e-19)
(0.25116541 1.3623488e-05 -2.0787615e-19)
(0.23574182 1.4219724e-05 -1.3423308e-19)
(0.21542012 1.0354916e-05 -1.1946276e-19)
(0.1809852 4.5263525e-06 1.1917582e-19)
(0.3019337 -2.3108585e-05 3.4628557e-18)
(0.29927334 -4.6684504e-05 2.8503756e-19)
(0.29340602 -3.9091561e-05 -8.1892214e-19)
(0.28507548 -1.7047596e-05 1.1045075e-18)
(0.27512089 3.0838297e-06 1.5662376e-18)
(0.26386445 1.5140176e-05 6.2647217e-19)
(0.25106783 1.9209629e-05 1.6500151e-19)
(0.23578541 1.7094485e-05 8.5885207e-20)
(0.21557121 1.1580665e-05 8.3645746e-20)
(0.18118949 4.8476636e-06 -3.6939229e-20)
(0.30276105 -1.5976922e-05 -1.7022555e-18)
(0.29965284 -3.0773261e-05 -8.4711668e-19)
(0.29329055 -1.9436591e-05 -1.0023831e-18)
(0.28476122 1.6739216e-07 -4.9105756e-19)
(0.27482457 1.5440415e-05 4.8964291e-19)
(0.2636834 2.3071206e-05 -1.8918032e-19)
(0.2510265 2.3802044e-05 2.0805721e-19)
(0.23587241 1.9434024e-05 1.3131111e-19)
(0.21575201 1.2564751e-05 7.2702905e-21)
(0.18141109 5.0988917e-06 7.8818065e-20)
(0.30327128 -8.1281115e-06 -1.1142036e-18)
(0.29978731 -1.448665e-05 1.8325351e-18)
(0.29307477 -1.3062312e-06 -5.5947502e-20)
(0.28444919 1.5038756e-05 -4.4837945e-19)
(0.27457434 2.5803446e-05 -1.2911123e-18)
(0.26355616 2.9613203e-05 -6.6421212e-19)
(0.25103263 2.7544304e-05 -4.5903409e-19)
(0.23599544 2.131105e-05 -1.8685201e-19)
(0.21595698 1.3335844e-05 -4.8654911e-20)
(0.18164631 5.2873068e-06 7.4777956e-20)
(0.30345392 -2.4278756e-07 -1.2056057e-18)
(0.2997026 1.1320271e-06 2.1462407e-19)
(0.29278637 1.4661216e-05 -1.3130504e-19)
(0.28414893 2.7524792e-05 -7.9343172e-19)
(0.27436561 3.4335979e-05 -9.008032e-19)
(0.26347497 3.4929319e-05 -3.6160697e-19)
(0.25107852 3.0535638e-05 -2.1427806e-19)
(0.23614811 2.2773853e-05 -2.3460381e-19)
(0.2161813 1.391243e-05 -6.9077509e-20)
(0.18189182 5.4170935e-06 3.2031867e-20)
(0.3033251 6.8804313e-06 -2.2500098e-18)
(0.29943293 1.4983826e-05 -3.1832557e-18)
(0.29244689 2.7992777e-05 -1.6576239e-18)
(0.28386233 3.7675628e-05 -2.2086146e-18)
(0.27419304 4.1186315e-05 -9.40687e-19)
(0.26343258 3.9127271e-05 -9.7667273e-19)
(0.25115731 3.2835568e-05 -1.0586123e-19)
(0.23632476 2.3848772e-05 -2.5349157e-20)
(0.21642058 1.4302548e-05 3.848143e-20)
(0.18214446 5.4889225e-06 1.3557313e-19)
(0.3029305 1.2606456e-05 3.7676381e-18)
(0.2990153 2.6251906e-05 -9.1600687e-19)
(0.29206924 3.850687e-05 -1.2645651e-18)
(0.28358877 4.5588907e-05 -1.6625527e-19)
(0.27405097 4.6451347e-05 7.5661155e-19)
(0.26342221 4.2266471e-05 2.3516618e-19)
(0.25126273 3.4471954e-05 -8.3458652e-21)
(0.23652016 2.4543501e-05 1.3660179e-19)
(0.21667065 1.4504806e-05 1.3414973e-19)
(0.18240107 5.5003075e-06 6.2990892e-21)
(0.30233165 1.6685843e-05 1.126627e-18)
(0.29848533 3.4600192e-05 2.2813768e-19)
(0.29166295 4.6230737e-05 -4.1338656e-19)
(0.28332653 5.1359759e-05 -2.3932657e-19)
(0.27393383 5.019482e-05 -9.0203424e-21)
(0.26343756 4.43783e-05 2.1882037e-19)
(0.25138895 3.5452646e-05 7.6620893e-20)
(0.23672935 2.4853328e-05 -1.0257331e-21)
(0.21692738 1.4511482e-05 3.6250094e-20)
(0.18265837 5.4467121e-06 -2.4025327e-20)
(0.30159326 1.9181896e-05 1.453101e-18)
(0.29787659 4.0083983e-05 3.5554482e-18)
(0.29123637 5.1326832e-05 6.3186409e-19)
(0.28307385 5.5102836e-05 2.5192419e-19)
(0.27383649 5.2478033e-05 -9.4718364e-19)
(0.26347282 4.5487003e-05 -1.3680461e-19)
(0.25153053 3.5779213e-05 -2.7431734e-19)
(0.2369475 2.4769972e-05 -1.3643338e-19)
(0.21718659 1.4313503e-05 -5.6494926e-20)
(0.18291286 5.3234361e-06 4.8203927e-21)
(0.30077408 2.0343891e-05 7.5389015e-19)
(0.29721994 4.3029676e-05 1.8564074e-18)
(0.29079789 5.4063206e-05 2.9074215e-20)
(0.28282963 5.6975005e-05 -6.1932666e-19)
(0.2737546 5.3382724e-05 -3.0248087e-19)
(0.26352282 4.5627817e-05 9.8435668e-20)
(0.25168237 3.546055e-05 -1.3545786e-19)
(0.23716992 2.4290729e-05 -1.2058409e-19)
(0.21744401 1.390559e-05 -1.0809518e-19)
(0.1831609 5.1274529e-06 -3.093845e-20)
(0.29992224 2.0483856e-05 -3.1377405e-18)
(0.29654262 4.3899069e-05 -2.8454177e-18)
(0.29035626 5.4780713e-05 -1.5247718e-18)
(0.28259384 5.7181911e-05 -2.5718393e-18)
(0.27368475 5.3024415e-05 -1.3181412e-18)
(0.26358307 4.4860523e-05 -7.9863091e-19)
(0.25183984 3.4524148e-05 -7.6357862e-20)
(0.23739211 2.3426499e-05 -1.0895276e-19)
(0.21769544 1.3291054e-05 -6.7578709e-20)
(0.18339879 4.8592558e-06 2.2424155e-20)
(0.29907425 1.9896829e-05 2.0072335e-18)
(0.29586747 4.3179465e-05 -7.6742843e-19)
(0.28992021 5.3855119e-05 -8.876585e-19)
(0.2823675 5.5969407e-05 4.2794755e-19)
(0.27362455 5.1554524e-05 5.704351e-19)
(0.26364989 4.3275073e-05 2.312481e-19)
(0.25199879 3.3021842e-05 2.7408005e-19)
(0.23760991 2.2206158e-05 1.9647809e-19)
(0.21793689 1.2484453e-05 9.9363743e-20)
(0.18362305 4.5238508e-06 -8.4142603e-21)
(0.29825616 1.8826212e-05 -1.1877613e-18)
(0.29521264 4.1316372e-05 -5.8874203e-19)
(0.28949797 5.1661541e-05 -2.1587783e-19)
(0.28215235 5.3606053e-05 4.2729271e-19)
(0.27357255 4.9153348e-05 4.954385e-19)
(0.26372035 4.0989618e-05 2.1804546e-19)
(0.25215571 3.10298e-05 1.5345384e-19)
(0.2378196 2.0677034e-05 6.4664481e-20)
(0.21816473 1.1512054e-05 6.1724231e-20)
(0.18383055 4.1309724e-06 6.0137971e-20)
(0.29748544 1.7457851e-05 8.4107891e-19)
(0.29459166 3.8683409e-05 3.7409593e-18)
(0.28909668 4.8547249e-05 1.8237137e-18)
(0.28195052 5.0363078e-05 6.5872567e-19)
(0.27352798 4.6017358e-05 -7.4469596e-19)
(0.26379222 3.8142547e-05 -3.6596411e-19)
(0.25230769 2.8643368e-05 -5.8432847e-19)
(0.23801801 1.8901496e-05 -3.8534701e-19)
(0.21837594 1.0409756e-05 -1.1608832e-19)
(0.18401877 3.6942193e-06 -1.6880823e-20)
(0.29677292 1.59273e-05 3.2847215e-18)
(0.29401395 3.5576722e-05 3.3914597e-18)
(0.28872208 4.4815393e-05 1.44887e-18)
(0.28176411 4.6497088e-05 1.3167171e-19)
(0.27349054 4.2345201e-05 -2.8900542e-19)
(0.26386387 3.4881817e-05 -4.51234e-19)
(0.25245241 2.5969077e-05 -2.9236246e-19)
(0.23820265 1.6951262e-05 -1.1457774e-19)
(0.21856817 9.2195613e-06 -3.3666854e-20)
(0.18418595 3.2296214e-06 -9.7291923e-20)
(0.2961245 1.4330627e-05 -2.6067478e-18)
(0.2934854 3.2221911e-05 -2.0945598e-18)
(0.28837834 4.0718379e-05 -1.4884824e-18)
(0.2815949 4.2237851e-05 -2.1097506e-18)
(0.27346017 3.8325305e-05 -6.593002e-19)
(0.26393413 3.13541e-05 -6.5500631e-19)
(0.25258815 2.3115825e-05 -1.3930848e-19)
(0.23837165 1.4900845e-05 -2.327942e-20)
(0.21873986 7.9854095e-06 -1.5622747e-19)
(0.18433108 2.7539357e-06 -5.9558437e-20)
(0.29554248 1.273447e-05 3.0977049e-18)
(0.29300906 2.8785634e-05 -6.4489847e-20)
(0.28806808 3.6458184e-05 2.0853179e-19)
(0.28144414 3.7781595e-05 1.3286457e-18)
(0.27343686 3.4126807e-05 1.168422e-18)
(0.26400215 2.7695762e-05 5.9348101e-19)
(0.25271369 2.0187029e-05 1.1143394e-19)
(0.23852382 1.2821546e-05 -3.2384972e-20)
(0.21889019 6.7492917e-06 -1.0754582e-19)
(0.18445398 2.2830501e-06 -1.6738201e-19)
(0.29502664 1.1184072e-05 1.2046285e-18)
(0.29258577 2.5387656e-05 1.4801102e-19)
(0.28779257 3.2190784e-05 1.3225665e-18)
(0.28131253 3.328892e-05 1.306917e-18)
(0.27342051 2.9894204e-05 8.8497977e-19)
(0.26406733 2.4026571e-05 2.5289998e-19)
(0.25282826 1.7274756e-05 1.7700788e-19)
(0.23865857 1.0776846e-05 4.9039025e-20)
(0.21901905 5.548292e-06 3.9231989e-20)
(0.18455516 1.8308155e-06 -2.1754659e-20)
(0.29457495 9.7092573e-06 1.271676e-18)
(0.29221473 2.2111492e-05 4.2875727e-18)
(0.2875519 2.8032432e-05 1.5322986e-18)
(0.28120013 2.8885986e-05 8.1315538e-19)
(0.2734109 2.5745254e-05 -4.4535259e-19)
(0.2641292 2.0446192e-05 1.8360008e-19)
(0.25293144 1.4456087e-05 -1.7729065e-19)
(0.23877583 8.8194773e-06 -6.3635297e-20)
(0.21912696 4.4126779e-06 -6.0332506e-20)
(0.18463572 1.4082842e-06 -5.4571506e-21)
(0.29418421 8.3287947e-06 4.8307972e-18)
(0.29189394 1.9013178e-05 4.3195928e-18)
(0.2873452 2.4066429e-05 1.69235e-18)
(0.28110652 2.466773e-05 2.985254e-18)
(0.27340762 2.1771415e-05 2.2771211e-18)
(0.26418744 1.7033154e-05 1.6624418e-18)
(0.25302315 1.1791645e-05 6.2076332e-19)
(0.23887599 6.9901787e-06 1.7698425e-19)
(0.21921494 3.3651575e-06 3.555919e-20)
(0.1846972 1.0234734e-06 -7.2579679e-20)
(0.29385048 7.0535181e-06 4.5306615e-19)
(0.29162055 1.6128163e-05 -2.0122108e-19)
(0.2871709 2.0349496e-05 3.7197557e-18)
(0.28103082 2.0702044e-05 2.7273742e-18)
(0.27341012 1.8039909e-05 2.5711773e-18)
(0.26424177 1.3845569e-05 1.8404628e-18)
(0.25310352 9.3257195e-06 1.422379e-18)
(0.23895977 5.3177219e-06 6.1582234e-19)
(0.21928437 2.4209334e-06 5.0043997e-19)
(0.18474146 6.8141413e-07 2.0613798e-19)
(0.29356933 5.8886094e-06 2.4527954e-18)
(0.29139121 1.3476676e-05 2.078933e-18)
(0.28702692 1.6917448e-05 3.4926901e-18)
(0.2809718 1.7034269e-05 2.8677649e-18)
(0.27341774 1.4596746e-05 2.0470356e-18)
(0.264292 1.092311e-05 1.5135538e-18)
(0.25317293 7.0876355e-06 1.3999555e-18)
(0.23902819 3.8199508e-06 9.5650836e-19)
(0.21933691 1.5884636e-06 6.8770578e-19)
(0.18477053 3.8451684e-07 3.3143045e-19)
(0.29333615 4.8352548e-06 1.9586614e-18)
(0.29120222 1.1067857e-05 1.8579352e-18)
(0.28691084 1.3790068e-05 3.3531488e-18)
(0.28092801 1.369161e-05 4.8075525e-18)
(0.27342971 1.1470265e-05 4.0978451e-18)
(0.26433799 8.2897648e-06 1.9851142e-18)
(0.25323189 5.0939651e-06 1.4794467e-18)
(0.23908247 2.5055579e-06 1.2241396e-18)
(0.21937437 8.7077148e-07 7.3645377e-19)
(0.18478648 1.331625e-07 4.8123267e-19)
(0.29314626 3.8918214e-06 -6.8907898e-20)
(0.29104976 8.9027966e-06 1.6654406e-18)
(0.28682002 1.0974949e-05 2.8194274e-18)
(0.28089784 1.0686886e-05 3.8952754e-18)
(0.27344523 8.6743088e-06 3.8826101e-18)
(0.26437967 5.9563791e-06 2.5077651e-18)
(0.25328103 3.3503531e-06 1.6412821e-18)
(0.23912392 1.3751378e-06 1.2332694e-18)
(0.21939863 2.7154767e-07 8.1311211e-19)
(0.1847914 -6.9865135e-08 5.4456832e-19)
(0.29299507 3.0545592e-06 4.6869476e-19)
(0.29092997 6.9764513e-06 2.098178e-18)
(0.28675176 8.4700014e-06 2.1063997e-20)
(0.28087963 8.0209843e-06 3.5058101e-19)
(0.27346351 6.2102352e-06 1.6398807e-18)
(0.26441701 3.9222476e-06 1.7871904e-18)
(0.25332108 1.8536154e-06 1.5100899e-18)
(0.23915391 4.2841685e-07 1.2168234e-18)
(0.21941122 -2.1413139e-07 8.5663294e-19)
(0.18478764 -2.286274e-07 5.4362065e-19)
(0.29287811 2.3183346e-06 1.982384e-18)
(0.29083909 5.2795744e-06 1.4734724e-18)
(0.28670334 6.2662272e-06 2.6934038e-18)
(0.28087169 5.6860673e-06 7.9342865e-19)
(0.27348376 4.0703502e-06 5.6113628e-19)
(0.26445004 2.1793377e-06 1.9193315e-18)
(0.25335274 5.991752e-07 1.6330355e-18)
(0.23917354 -3.4351615e-07 1.4047567e-18)
(0.21941458 -6.0448039e-07 1.2937236e-18)
(0.18477675 -3.5412863e-07 8.1633341e-19)
(0.29279117 1.6772155e-06 3.3408092e-18)
(0.29077351 3.8003356e-06 2.3040585e-18)
(0.28667213 4.350202e-06 2.5595149e-18)
(0.28087239 3.6687508e-06 2.0004318e-18)
(0.27350525 2.2421163e-06 1.8261289e-18)
(0.26447879 7.1865219e-07 2.1675408e-18)
(0.25337659 -4.2722846e-07 1.8383927e-18)
(0.23918482 -9.6360771e-07 1.4092671e-18)
(0.21941032 -9.1325474e-07 1.2421588e-18)
(0.1847602 -4.5111825e-07 9.3238205e-19)
(0.29273025 1.1248206e-06 2.2666604e-18)
(0.29072978 2.5252662e-06 2.182112e-18)
(0.28665562 2.7056474e-06 2.6351475e-18)
(0.28088016 1.9527544e-06 3.6647891e-18)
(0.27352727 7.1237574e-07 2.9487048e-18)
(0.26450319 -4.7853401e-07 1.8717525e-18)
(0.253394 -1.2534188e-06 1.8591027e-18)
(0.23918901 -1.4512475e-06 1.5379525e-18)
(0.21939988 -1.1471175e-06 1.1763852e-18)
(0.18473938 -5.212898e-07 1.0327914e-18)
(0.29269165 6.5457067e-07 4.6480184e-19)
(0.29070469 1.4402603e-06 1.9421874e-18)
(0.28665142 1.3160432e-06 2.2554357e-18)
(0.2808935 5.2226952e-07 2.8301857e-18)
(0.27354905 -5.4130819e-07 2.4503693e-18)
(0.26452391 -1.4436475e-06 1.9081585e-18)
(0.25340577 -1.9037264e-06 1.7438264e-18)
(0.23918729 -1.8194322e-06 1.6456943e-18)
(0.2193846 -1.3130359e-06 1.3579836e-18)
(0.18471553 -5.6715112e-07 1.1436428e-18)
(0.29267192 2.6032393e-07 -1.8102302e-19)
(0.29069525 5.3224715e-07 1.7131001e-18)
(0.28665725 1.6403454e-07 3.6083985e-19)
(0.28091096 -6.4829829e-07 1.1386466e-18)
(0.27357052 -1.5526059e-06 2.4289259e-18)
(0.26454119 -2.2044424e-06 2.2120624e-18)
(0.25341264 -2.3961051e-06 1.8268793e-18)
(0.23918073 -2.0810228e-06 1.6690828e-18)
(0.2193657 -1.4193883e-06 1.2837606e-18)
(0.18468975 -5.9194633e-07 1.1119035e-18)
(0.29266788 -6.4438719e-08 3.1990659e-19)
(0.29069863 -2.1467656e-07 2.6613876e-18)
(0.28667111 -7.7560411e-07 3.1739667e-18)
(0.28093167 -1.5918311e-06 1.9978119e-18)
(0.27359127 -2.3502124e-06 1.5318337e-18)
(0.26455525 -2.7821762e-06 2.1241564e-18)
(0.25341532 -2.7481825e-06 2.0663697e-18)
(0.23917034 -2.2497904e-06 1.7805057e-18)
(0.21934424 -1.474997e-06 1.6171823e-18)
(0.18466297 -5.9909075e-07 1.1608426e-18)
(0.29267664 -3.2775601e-07 1.3089606e-18)
(0.29071241 -8.1978118e-07 2.5874285e-18)
(0.28669134 -1.5294073e-06 2.3581811e-18)
(0.28095459 -2.3338506e-06 1.2904957e-18)
(0.27361099 -2.9563959e-06 1.2113399e-18)
(0.26456636 -3.1976284e-06 1.367323e-18)
(0.2534145 -2.978137e-06 1.7163779e-18)
(0.23915703 -2.3394523e-06 1.627286e-18)
(0.21932114 -1.4883408e-06 1.6244321e-18)
(0.18463595 -5.9182447e-07 1.1668946e-18)
(0.29269572 -5.3705502e-07 2.8426758e-18)
(0.29073446 -1.2995668e-06 2.3174987e-18)
(0.28671639 -2.1175799e-06 2.0213408e-18)
(0.28097887 -2.8959297e-06 1.7227118e-18)
(0.27362943 -3.3932183e-06 1.6854895e-18)
(0.26457479 -3.4717147e-06 1.7512613e-18)
(0.25341079 -3.1037053e-06 1.6586019e-18)
(0.23914158 -2.3629931e-06 1.5993407e-18)
(0.2192972 -1.4672743e-06 1.4091067e-18)
(0.18460933 -5.7312257e-07 1.1764672e-18)
(0.29272288 -6.9825776e-07 2.227987e-18)
(0.29076286 -1.6677662e-06 2.1608751e-18)
(0.2867449 -2.5584987e-06 2.1161963e-18)
(0.28100375 -3.2991466e-06 1.6947039e-18)
(0.27364642 -3.6823537e-06 7.610053e-19)
(0.26458082 -3.6245334e-06 1.7479582e-18)
(0.25340478 -3.1415361e-06 1.70771e-18)
(0.23912471 -2.3323305e-06 1.6201932e-18)
(0.21927307 -1.4188398e-06 1.4134197e-18)
(0.1845836 -5.4559505e-07 1.2058059e-18)
(0.29275615 -8.1698931e-07 1.5494109e-18)
(0.29079592 -1.9374064e-06 2.2898017e-18)
(0.28677568 -2.8699041e-06 4.3127973e-18)
(0.2810286 -3.5639176e-06 2.5727132e-18)
(0.27366186 -3.8445499e-06 1.8143109e-18)
(0.26458475 -3.6750114e-06 7.019158e-19)
(0.253397 -3.1070293e-06 1.0874937e-18)
(0.23910703 -2.2582735e-06 1.336148e-18)
(0.2192493 -1.3492962e-06 1.3093658e-18)
(0.18455915 -5.1153072e-07 1.1575917e-18)
(0.29279377 -8.9855197e-07 2.1593479e-18)
(0.29083215 -2.1208517e-06 3.0625028e-18)
(0.28680769 -3.0687281e-06 5.0917228e-18)
(0.28105292 -3.7096493e-06 3.1379692e-18)
(0.27367569 -3.8993108e-06 1.8747377e-18)
(0.26458684 -3.6406778e-06 1.4166004e-18)
(0.25338792 -3.0141944e-06 1.1667937e-18)
(0.23908904 -2.1504565e-06 1.3646265e-18)
(0.21922632 -1.2640955e-06 1.4690046e-18)
(0.18453624 -4.7288297e-07 1.1371253e-18)
(0.29283424 -9.4795829e-07 1.577439e-18)
(0.29087026 -2.2298145e-06 1.65243e-18)
(0.28684006 -3.1710118e-06 -1.2605897e-19)
(0.28107628 -3.7546168e-06 1.8316948e-18)
(0.27368789 -3.8648077e-06 1.6868234e-18)
(0.26458738 -3.5376368e-06 2.1724458e-18)
(0.25337795 -2.8756967e-06 1.6628123e-18)
(0.23907117 -2.0174459e-06 1.4663015e-18)
(0.21920447 -1.168011e-06 1.3243926e-18)
(0.18451508 -4.3136109e-07 1.1304602e-18)
(0.29287626 -9.699029e-07 -9.137414e-20)
(0.29090916 -2.2752854e-06 8.7222098e-19)
(0.28687208 -3.1917776e-06 6.5460878e-19)
(0.28109838 -3.715816e-06 1.9428085e-18)
(0.2736985 -3.7577514e-06 2.0831952e-18)
(0.26458662 -3.3804862e-06 2.2621758e-18)
(0.25336745 -2.7028283e-06 1.9674316e-18)
(0.23905378 -1.8667463e-06 1.6439864e-18)
(0.21918399 -1.0651497e-06 1.4814155e-18)
(0.18449579 -3.8842547e-07 1.2717791e-18)
(0.29291871 -9.6877194e-07 -6.8859408e-19)
(0.29094794 -2.2675246e-06 2.9624987e-19)
(0.28690316 -3.1449901e-06 7.3676943e-19)
(0.28111898 -3.6089177e-06 8.8015645e-19)
(0.27370757 -3.5933708e-06 6.8040781e-19)
(0.26458481 -3.1823366e-06 1.5076436e-18)
(0.25335674 -2.5055656e-06 1.8683236e-18)
(0.23903713 -1.7048787e-06 1.6545649e-18)
(0.21916507 -9.5902925e-07 1.5153286e-18)
(0.18447843 -3.4532528e-07 1.3226122e-18)
(0.29296068 -9.4860514e-07 2.3692663e-18)
(0.29098584 -2.2159914e-06 3.1287955e-18)
(0.28693282 -3.0434662e-06 4.1560033e-18)
(0.28113792 -3.4481703e-06 2.1499541e-18)
(0.27371519 -3.3853243e-06 2.1391173e-18)
(0.26458216 -2.9547513e-06 6.7426888e-19)
(0.25334607 -2.2925378e-06 1.3839817e-18)
(0.23902143 -1.5373527e-06 1.4588055e-18)
(0.2191478 -8.5253435e-07 1.2376882e-18)
(0.184463 -3.0304113e-07 1.1429738e-18)
(0.29300141 -9.1310787e-07 3.7417193e-18)
(0.29102226 -2.1293379e-06 3.9727404e-18)
(0.28696073 -2.8988441e-06 4.6888577e-18)
(0.2811551 -3.2463688e-06 3.2348311e-18)
(0.27372145 -3.1456973e-06 2.5829912e-18)
(0.26457888 -2.7077716e-06 2.190701e-18)
(0.25333565 -2.0710678e-06 1.6728249e-18)
(0.23900684 -1.3687181e-06 1.5992529e-18)
(0.21913225 -7.4797376e-07 1.5276505e-18)
(0.18444948 -2.6231533e-07 1.1718784e-18)
(0.29304032 -8.6561481e-07 9.9456858e-20)
(0.29105672 -2.0153508e-06 8.3279642e-20)
(0.28698663 -2.7215178e-06 -1.5331771e-18)
(0.2811705 -3.0147927e-06 1.3176458e-18)
(0.27372647 -2.884953e-06 2.2707497e-18)
(0.26457515 -2.4498969e-06 2.7222581e-18)
(0.25332566 -1.8471815e-06 1.9336138e-18)
(0.23899346 -1.2025754e-06 1.7694115e-18)
(0.21911842 -6.470714e-07 1.4852627e-18)
(0.18443779 -2.2363374e-07 1.2548102e-18)
(0.29307694 -8.0912006e-07 1.2869262e-18)
(0.29108888 -1.8809881e-06 8.3766947e-19)
(0.28701035 -2.5206805e-06 6.4344194e-19)
(0.28118411 -2.7632743e-06 1.3793194e-18)
(0.27373038 -2.6120431e-06 2.1153895e-18)
(0.26457113 -2.1882281e-06 2.2219047e-18)
(0.25331622 -1.625763e-06 1.9051297e-18)
(0.23898133 -1.0417358e-06 1.7935326e-18)
(0.21910628 -5.5110832e-07 1.5784544e-18)
(0.18442784 -1.8732103e-07 1.3061729e-18)
(0.29311094 -7.4626245e-07 1.9144202e-18)
(0.2911185 -1.7323742e-06 2.0473688e-18)
(0.28703179 -2.3043428e-06 1.8077793e-18)
(0.28119598 -2.5002516e-06 1.5068083e-18)
(0.27373328 -2.3344953e-06 9.047033e-19)
(0.26456696 -1.9285886e-06 1.6982495e-18)
(0.25330742 -1.410699e-06 1.9047849e-18)
(0.2389705 -8.8834964e-07 1.7887822e-18)
(0.21909578 -4.610036e-07 1.6491682e-18)
(0.18441951 -1.5358908e-07 1.3532268e-18)
(0.2931421 -6.7937355e-07 1.8066602e-18)
(0.29114543 -1.5748856e-06 3.2386612e-18)
(0.28705093 -2.0794552e-06 3.8729624e-18)
(0.28120617 -2.232938e-06 2.3984179e-18)
(0.27373531 -2.0586289e-06 2.4214118e-18)
(0.26456274 -1.6757657e-06 1.0395122e-18)
(0.25329934 -1.2051124e-06 1.605827e-18)
(0.23896093 -7.4411132e-07 1.6390313e-18)
(0.21908684 -3.7748097e-07 1.4530591e-18)
(0.18441269 -1.2264163e-07 1.2845818e-18)
(0.29317029 -6.104763e-07 1.0601335e-18)
(0.2911696 -1.4131832e-06 3.0399305e-18)
(0.28706777 -1.8519848e-06 4.2791397e-18)
(0.28121478 -1.9674357e-06 2.6697832e-18)
(0.27373657 -1.7896941e-06 2.5561972e-18)
(0.26455858 -1.433655e-06 2.2570814e-18)
(0.25329201 -1.0114883e-06 1.7486349e-18)
(0.23895262 -6.1034437e-07 1.6167555e-18)
(0.21907936 -3.0110267e-07 1.68776e-18)
(0.18440724 -9.4670472e-08 1.3070559e-18)
(0.29319545 -5.413135e-07 2.5499004e-20)
(0.29119099 -1.2512676e-06 1.0486512e-18)
(0.28708239 -1.6269992e-06 -7.9017651e-19)
(0.2812219 -1.7088508e-06 1.7975905e-18)
(0.27373717 -1.532e-06 2.0969916e-18)
(0.26455454 -1.2053772e-06 2.6908905e-18)
(0.25328545 -8.3175772e-07 2.0587706e-18)
(0.2389455 -4.8803979e-07 1.7933902e-18)
(0.21907324 -2.3227568e-07 1.5960667e-18)
(0.18440304 -6.9828993e-08 1.275131e-18)
(0.2932176 -4.7334439e-07 9.5750737e-19)
(0.29120967 -1.09249e-06 1.5277219e-18)
(0.28709488 -1.4086956e-06 1.4711046e-18)
(0.28122765 -1.461326e-06 1.7297784e-18)
(0.27373723 -1.2889388e-06 1.8147273e-18)
(0.26455069 -9.9328302e-07 2.0050895e-18)
(0.25327965 -6.6727628e-07 2.1282892e-18)
(0.2389395 -3.7780255e-07 1.9124299e-18)
(0.21906836 -1.7118051e-07 1.7046105e-18)
(0.18439995 -4.8160317e-08 1.3982686e-18)
(0.29323684 -4.0775607e-07 -2.3090825e-20)
(0.29122573 -9.3956979e-07 7.9724135e-19)
(0.28710536 -1.2004209e-06 1.8243037e-18)
(0.28123217 -1.2280659e-06 8.8175909e-19)
(0.27373683 -1.0630084e-06 7.8515413e-19)
(0.26454708 -7.9895888e-07 1.2901015e-18)
(0.25327461 -5.1880114e-07 1.7324148e-18)
(0.23893455 -2.7981383e-07 1.8525431e-18)
(0.2190646 -1.1773648e-07 1.664854e-18)
(0.18439784 -2.956023e-08 1.3871221e-18)
(0.29325328 -3.4545654e-07 3.1696855e-18)
(0.29123931 -7.9458744e-07 2.5933347e-18)
(0.28711398 -1.0046654e-06 3.4752308e-18)
(0.28123559 -1.0113235e-06 2.1432387e-18)
(0.27373608 -8.5578797e-07 1.9426617e-18)
(0.26454374 -6.2319367e-07 1.0282449e-18)
(0.25327028 -3.8646074e-07 1.4945316e-18)
(0.23893056 -1.938056e-07 1.5469569e-18)
(0.21906183 -7.1580317e-08 1.2820347e-18)