/*--------------------------------*- C++ -*----------------------------------*\
| =========                 |                                                 |
| \\      /  F ield         | OpenFOAM: The Open Source CFD Toolbox           |
|  \\    /   O peration     | Version:  2506                                  |
|   \\  /    A nd           | Website:  www.openfoam.com                      |
|    \\/     M anipulation  |                                                 |
\*---------------------------------------------------------------------------*/
FoamFile
{
    version     2.0;
    format      ascii;
    arch        "LSB;label=32;scalar=64";
    class       volScalarField;
    location    "5000/water";
    object      alphat;
}
// * * * * * * * * * * * * * * * * * * * * * * * * * * * * * * * * * * * * * //

dimensions      [1 -1 -1 0 0 0 0];

internalField   nonuniform List<scalar> 
6000
(
0.041292847
0.041292824
0.041292831
0.041292856
0.041292889
0.041292932
0.041292983
0.041293016
0.041292808
0.041290571
0.041271537
0.041111294
0.0397723
0.030564074
0.013464793
0.040788543
0.040788537
0.040788576
0.040788654
0.040788758
0.040788888
0.04078902
0.040788972
0.040787494
0.040776037
0.040696382
0.040161217
0.036863805
0.023766469
0.015141611
0.04033569
0.040335696
0.040335761
0.040335884
0.040336044
0.040336229
0.04033633
0.040335685
0.040330323
0.040296649
0.040097616
0.038983223
0.033614213
0.0194951
0.016360294
0.039926215
0.039926219
0.039926301
0.039926459
0.03992666
0.039926848
0.039926701
0.039924457
0.039910659
0.039835636
0.039448738
0.037597438
0.030384627
0.016783058
0.017196555
0.039553796
0.039553808
0.039553906
0.039554093
0.039554312
0.039554413
0.039553622
0.0395481
0.039519187
0.039379112
0.038737841
0.036066498
0.027427863
0.015063192
0.01773179
0.039213273
0.039213296
0.039213408
0.039213613
0.039213809
0.039213657
0.039211571
0.039200298
0.039147643
0.038916647
0.037965398
0.034462847
0.024852826
0.013984463
0.018040007
0.038900366
0.038900399
0.038900521
0.038900723
0.038900826
0.038900159
0.038895819
0.03887551
0.038788999
0.038441492
0.037140256
0.032849727
0.022675913
0.013336844
0.018183117
0.038611532
0.038611573
0.038611697
0.038611866
0.038611765
0.038610199
0.038602307
0.038568928
0.038437606
0.037950377
0.036275872
0.031274836
0.020870828
0.012994967
0.018210197
0.038343817
0.038343862
0.038343975
0.038344065
0.038343601
0.038340605
0.038327517
0.03827644
0.038089201
0.037442856
0.03538704
0.029770034
0.019396999
0.012882914
0.018158676
0.038094736
0.03809478
0.038094862
0.038094803
0.038093753
0.038088644
0.038068396
0.037994592
0.037740813
0.036920505
0.03448763
0.028354169
0.018213448
0.012953916
0.018056304
0.037862183
0.037862216
0.037862238
0.037861935
0.037860009
0.037851941
0.037822294
0.037720559
0.037390607
0.036386134
0.033589398
0.02703684
0.017284481
0.013178532
0.017923231
0.03764436
0.037644371
0.037644291
0.037643618
0.037640447
0.037628426
0.037586933
0.037452106
0.037037684
0.035843147
0.032701562
0.025821837
0.016581272
0.013537499
0.017773886
0.037439726
0.037439699
0.03743946
0.037438254
0.037433393
0.037416287
0.037360374
0.037187532
0.036681868
0.035295042
0.031830871
0.02470985
0.016081614
0.014017191
0.017618497
0.037246949
0.037246861
0.037246392
0.037244452
0.037237378
0.037213943
0.037140989
0.036925609
0.0363235
0.034745073
0.030981931
0.023700436
0.015768976
0.014606606
0.017464261
0.037064871
0.037064693
0.037063903
0.037060987
0.037051109
0.037020016
0.036927437
0.036665512
0.035963258
0.03419604
0.030157673
0.022793377
0.015631332
0.015295285
0.017316197
0.03689248
0.036892177
0.036890955
0.036886782
0.036873442
0.036833316
0.036718634
0.03640675
0.035602004
0.033650187
0.029359858
0.021989539
0.015659917
0.016071914
0.01717775
0.036728885
0.036728414
0.036726628
0.036720878
0.03670337
0.036652818
0.036513731
0.036149096
0.035240656
0.033109157
0.028589603
0.021291346
0.015847992
0.016923492
0.017051196
0.036573301
0.03657261
0.036570106
0.036562424
0.036540005
0.036477653
0.03631208
0.035892529
0.034880099
0.032574024
0.027847913
0.02070292
0.016189617
0.01783505
0.016937916
0.036425028
0.036424056
0.036420663
0.036410663
0.036382564
0.036307092
0.036113215
0.03563717
0.034521109
0.032045349
0.027136212
0.020229919
0.016678486
0.018789895
0.016838558
0.036283441
0.03628212
0.036277645
0.036264917
0.036230367
0.036140535
0.03591682
0.035383242
0.034164308
0.031523285
0.026456862
0.019879123
0.017306891
0.019770317
0.016753165
0.036147982
0.036146234
0.036140468
0.036124584
0.036082821
0.035977497
0.035722708
0.035131018
0.033810124
0.031007717
0.025813646
0.019657797
0.018064912
0.0207586
0.016681265
0.036018143
0.036015885
0.036008605
0.035989127
0.035939416
0.035817597
0.035530799
0.034880794
0.033458783
0.030498445
0.025212142
0.019572905
0.018939949
0.021738147
0.016621966
0.03589347
0.03589061
0.035881581
0.035858069
0.035799718
0.035660549
0.035341095
0.034632853
0.033110301
0.029995409
0.024659951
0.019630248
0.019916664
0.02269449
0.016574063
0.035773545
0.035769987
0.035758968
0.035730991
0.035663366
0.035506152
0.035153669
0.034387441
0.032764498
0.029498968
0.024166686
0.019833637
0.020977366
0.023616003
0.016536152
0.035657992
0.035653635
0.035640383
0.035607524
0.035530063
0.035354279
0.034968643
0.03414475
0.03242103
0.029010211
0.023743688
0.020184173
0.022102784
0.024494228
0.016506745
0.035546464
0.035541207
0.035525479
0.03548735
0.035399574
0.035204869
0.034786172
0.033904896
0.032079439
0.028531301
0.023403466
0.020679734
0.023273104
0.025323802
0.016484372
0.035438647
0.035432386
0.035413948
0.035370193
0.035271718
0.035057919
0.034606436
0.03366791
0.03173923
0.028065808
0.023158914
0.021314706
0.0244691
0.026102089
0.016467662
0.035334251
0.035326887
0.035305516
0.035255823
0.03514637
0.034913479
0.03442962
0.033433727
0.031399978
0.02761899
0.023022388
0.022080016
0.02567317
0.026828633
0.016455398
0.035233012
0.035224448
0.035199939
0.03514405
0.035023453
0.034771643
0.034255909
0.033202186
0.031061475
0.027197981
0.02300477
0.022963453
0.026870128
0.027504567
0.016446543
0.035134691
0.035124836
0.035097009
0.035034724
0.034902936
0.03463254
0.03408547
0.032973033
0.030723902
0.0268118
0.023114633
0.023950249
0.02804767
0.028132079
0.016440248
0.035039067
0.03502784
0.034996542
0.034927732
0.034784832
0.034496333
0.033918446
0.032745938
0.030388046
0.026471167
0.023357597
0.025023883
0.02919649
0.028713983
0.016435834
0.034945943
0.034933275
0.034898386
0.034822996
0.034669194
0.034363211
0.033754944
0.032520522
0.030055535
0.026188099
0.023735915
0.026166982
0.030310099
0.029253407
0.016432778
0.034855141
0.034840974
0.034802418
0.034720475
0.034556112
0.034233382
0.033595029
0.032296402
0.029729078
0.025975302
0.024248334
0.02736225
0.031384439
0.029753594
0.016430685
0.034766502
0.034750797
0.03470854
0.034620164
0.034445715
0.034107066
0.033438713
0.032073259
0.029412693
0.025845434
0.02489019
0.028593298
0.032417399
0.030217765
0.016429265
0.034679887
0.034662624
0.034616684
0.034522088
0.034338162
0.033984492
0.033285952
0.031850929
0.029111867
0.025810314
0.025653731
0.029845306
0.033408314
0.030649046
0.016428312
0.034595176
0.034576356
0.034526808
0.034426308
0.034233647
0.033865888
0.033136649
0.03162952
0.028833633
0.025880169
0.026528619
0.031105458
0.034357529
0.031050409
0.016427682
0.034512269
0.034491917
0.034438897
0.034332917
0.034132389
0.033751478
0.032990657
0.031409556
0.028586515
0.02606301
0.027502554
0.032363144
0.035266042
0.031424647
0.01642728
0.034431083
0.034409252
0.034352965
0.034242042
0.034034637
0.033641469
0.032847794
0.031192142
0.028380315
0.026364176
0.028561979
0.033609948
0.036135248
0.031774346
0.016427047
0.034351558
0.034328331
0.034269052
0.034153841
0.033940664
0.03353605
0.032707869
0.03097915
0.028225759
0.02678609
0.029692788
0.034839473
0.03696677
0.032101874
0.01642695
0.034273652
0.034249145
0.03418723
0.034068505
0.03385076
0.033435384
0.03257072
0.030773393
0.028133998
0.027328221
0.030880993
0.036047067
0.037762344
0.032409381
0.016426974
0.034197344
0.03417171
0.034107598
0.033986257
0.033765237
0.033339598
0.032436275
0.030578782
0.028116032
0.027987225
0.032113285
0.037229503
0.038523755
0.032698799
0.016427117
0.034122637
0.034096064
0.034030285
0.033907355
0.033684417
0.033248788
0.032304627
0.030400435
0.028182107
0.02875725
0.033377461
0.038384663
0.039252794
0.032971855
0.016427382
0.034049553
0.034022276
0.033955452
0.033832084
0.033608631
0.033163012
0.032176131
0.030244714
0.028341141
0.029630359
0.034662708
0.039511266
0.039951228
0.033230086
0.016427779
0.03397814
0.033950437
0.033883292
0.033760766
0.033538214
0.0330823
0.032051523
0.030119155
0.028600248
0.030597022
0.035959728
0.040608641
0.040620777
0.033474856
0.016428318
0.033908471
0.033880668
0.033814033
0.033693749
0.033473498
0.033006661
0.031932061
0.030032291
0.028964397
0.031646653
0.037260744
0.041676558
0.0412631
0.033707373
0.01642901
0.033840644
0.033813121
0.033747936
0.033631414
0.033414804
0.032936115
0.031819662
0.029993369
0.029436212
0.03276813
0.038559406
0.042715108
0.041879779
0.033928705
0.016429865
0.033774787
0.03374798
0.033685299
0.033574167
0.033362441
0.032870717
0.031717044
0.030011962
0.030015934
0.033950284
0.039850629
0.043724612
0.042472314
0.034139802
0.016430892
0.033711057
0.03368546
0.033626458
0.03352244
0.033316699
0.032810615
0.031627853
0.03009752
0.030701524
0.035182302
0.041130415
0.044705564
0.043042113
0.034341502
0.016432097
0.033649643
0.033625814
0.033571787
0.033476689
0.033277844
0.032756113
0.031556734
0.030258905
0.031488879
0.036454044
0.042395663
0.045658586
0.043590498
0.034534552
0.016433487
0.03359077
0.033569333
0.033521698
0.033437387
0.03324612
0.032707756
0.031509358
0.030503939
0.032372145
0.037756267
0.043643995
0.046584395
0.044118699
0.034719617
0.016435064
0.033534699
0.033516348
0.033476647
0.033405019
0.033221753
0.032666433
0.031492359
0.030839028
0.033344088
0.039080735
0.044873611
0.04748377
0.044627864
0.034897289
0.016436831
0.033481731
0.033467235
0.033437127
0.033380083
0.033204961
0.032633491
0.031513198
0.031268867
0.034396492
0.040420265
0.046083175
0.048357533
0.045119059
0.035068096
0.016438788
0.033432211
0.033422413
0.033403675
0.033363076
0.033195977
0.032610856
0.031579923
0.031796266
0.035520555
0.04176869
0.047271717
0.04920653
0.045593277
0.035232514
0.016440933
0.033386531
0.033382352
0.033376864
0.033354497
0.033195078
0.03260115
0.031700872
0.032422092
0.036707257
0.043120789
0.048438563
0.050031614
0.046051438
0.035390969
0.016443266
0.033345134
0.033347573
0.033357309
0.033354836
0.033202628
0.032607793
0.031884308
0.033145319
0.037947676
0.044472182
0.049583282
0.050833633
0.046494398
0.035543845
0.016445782
0.033308518
0.033318652
0.033345661
0.033364571
0.033219143
0.032635062
0.032138043
0.033963179
0.039233253
0.045819223
0.05070564
0.051613422
0.046922952
0.03569149
0.016448478
0.033277237
0.03329622
0.033342601
0.033384174
0.033245363
0.03268811
0.032469071
0.034871383
0.040555969
0.047158893
0.051805561
0.052371796
0.04733784
0.035834219
0.016451351
0.033251914
0.033280969
0.033348845
0.033414106
0.033282345
0.032772917
0.032883247
0.0358644
0.041908473
0.048488702
0.052883101
0.053109548
0.047739749
0.03597232
0.016454394
0.033233235
0.033273652
0.033365128
0.033454835
0.033331563
0.032896165
0.033385034
0.03693576
0.043284142
0.049806605
0.05393842
0.053827443
0.048129319
0.036106053
0.016457603
0.033221962
0.033275082
0.033392211
0.033506851
0.033395016
0.03306505
0.033977334
0.038078364
0.044677086
0.051110935
0.054971757
0.054526219
0.048507144
0.036235658
0.016460974
0.033218934
0.033286139
0.033430864
0.033570696
0.033475331
0.03328702
0.03466142
0.039284778
0.04608213
0.052400341
0.055983417
0.055206585
0.048873782
0.036361356
0.016464499
0.033225073
0.033307762
0.03348187
0.033647008
0.033575844
0.033569482
0.035436949
0.04054749
0.04749476
0.053673743
0.056973752
0.055869224
0.049229754
0.036483354
0.016468174
0.033241386
0.033340955
0.033546021
0.033736577
0.033700658
0.033919475
0.036302064
0.041859134
0.048911065
0.054930289
0.057943147
0.056514766
0.049575441
0.036601082
0.01647199
0.033268972
0.03338678
0.033624112
0.033840419
0.033854649
0.034343359
0.037253553
0.043212653
0.050327668
0.056169319
0.058892004
0.057143804
0.049911239
0.036714877
0.016475942
0.033309024
0.033446355
0.033716952
0.033959859
0.034043417
0.034846534
0.038287071
0.04460142
0.051741662
0.057390335
0.059820741
0.057756908
0.050237553
0.036825044
0.016480019
0.033362829
0.033520852
0.033825375
0.034096626
0.034273178
0.035433213
0.039397369
0.046019309
0.053150554
0.058592974
0.060729787
0.058354632
0.050554794
0.036931849
0.016484214
0.033431775
0.03361149
0.033950256
0.034252952
0.034550587
0.036106268
0.040578553
0.047460734
0.054552208
0.059776989
0.061619571
0.058937451
0.050862921
0.03703558
0.016488518
0.033517344
0.033719533
0.034092548
0.034431662
0.034882512
0.036867149
0.041824319
0.048920647
0.055944804
0.060942226
0.062490515
0.05950581
0.05116215
0.037136395
0.016492923
0.033621114
0.033846282
0.034253323
0.034636248
0.035275763
0.037715881
0.043128177
0.050394526
0.057326793
0.062088607
0.063343036
0.060060164
0.051452981
0.037234384
0.016497425
0.033744758
0.03399308
0.034433835
0.034870906
0.035736811
0.038651137
0.044483639
0.051878339
0.058696861
0.063216118
0.064177555
0.060600976
0.051735852
0.037329654
0.016502019
0.033890035
0.034161309
0.034635592
0.035140534
0.036271505
0.039670362
0.045884373
0.053368511
0.060053905
0.0643248
0.064994477
0.061128577
0.052011166
0.037422332
0.0165067
0.034058788
0.034352406
0.034860442
0.035450674
0.03688482
0.040769945
0.047324314
0.054861878
0.061396998
0.065414734
0.065794151
0.061642954
0.052279309
0.037512565
0.016511467
0.034252939
0.034567874
0.035110667
0.035807396
0.037580653
0.041945418
0.048797746
0.056355649
0.062725366
0.066486027
0.066576938
0.062144675
0.052540488
0.037600456
0.016516317
0.034474483
0.034809317
0.03538907
0.036217121
0.038361681
0.043191665
0.050299349
0.057847366
0.064038368
0.067538814
0.067343223
0.062634252
0.052794923
0.037686091
0.016521247
0.034725492
0.035078479
0.035699057
0.0366864
0.039229286
0.044503129
0.051824216
0.05933487
0.065335472
0.068573261
0.068093403
0.063112144
0.053042841
0.037769549
0.016526253
0.035008115
0.035377306
0.036044691
0.037221657
0.040183547
0.045874005
0.053367863
0.060816267
0.066616254
0.06958951
0.068827377
0.063578813
0.053284494
0.037850925
0.016531332
0.035324594
0.035708015
0.036430706
0.037828923
0.041223301
0.047298405
0.054926208
0.062289899
0.067880357
0.070587714
0.069545623
0.064034568
0.053520089
0.037930307
0.016536479
0.035677292
0.036073183
0.036862474
0.038513577
0.042346247
0.048770499
0.056495558
0.063754311
0.069127492
0.071568063
0.070248613
0.064479708
0.053749814
0.03800777
0.016541693
0.036068728
0.03647583
0.037345915
0.039280112
0.043549101
0.05028462
0.058072576
0.065208228
0.070357434
0.072530783
0.070936784
0.064914531
0.053973847
0.038083378
0.016546969
0.036501636
0.036919514
0.037887351
0.040131963
0.044827768
0.051835346
0.059654262
0.066650547
0.071569997
0.073475723
0.071610518
0.065339334
0.054192377
0.038157193
0.016552305
0.036979031
0.037408394
0.038493298
0.041071375
0.046177524
0.053417551
0.061237919
0.068080291
0.07276501
0.074403182
0.072270163
0.065754381
0.054405583
0.038229276
0.016557696
0.037504293
0.037947279
0.03917023
0.042099351
0.047593206
0.055026432
0.062821118
0.069496594
0.073942361
0.075313487
0.072916039
0.06615992
0.054613623
0.038299683
0.01656314
0.038081249
0.038541618
0.039924313
0.043215658
0.049069376
0.056657526
0.064401683
0.070898704
0.075101909
0.076206921
0.073548444
0.066556193
0.054816645
0.038368462
0.016568632
0.038714246
0.039197443
0.040761139
0.044418888
0.050600471
0.058306705
0.065977664
0.072285952
0.076243444
0.077083729
0.074167653
0.066943443
0.055014789
0.038435659
0.01657417
0.039408203
0.039921241
0.041685486
0.045706568
0.052180933
0.059970168
0.067547295
0.073657717
0.077366988
0.077944215
0.074773929
0.067321892
0.05520819
0.038501317
0.01657975
0.040168616
0.040719773
0.042701112
0.047075306
0.053805301
0.061644416
0.069108974
0.075013467
0.078472629
0.078788637
0.075367525
0.067691747
0.055396969
0.038565474
0.01658537
0.041001503
0.041599821
0.043810604
0.048520956
0.055468296
0.063326261
0.070661297
0.076352598
0.079560295
0.079617194
0.075948689
0.068053204
0.055581242
0.038628166
0.016591025
0.041913281
0.042567907
0.045015299
0.050038788
0.057164861
0.065012764
0.072202918
0.077674645
0.080630177
0.080430089
0.076517657
0.068406449
0.055761115
0.038689424
0.016596713
0.04291056
0.043629985
0.046315252
0.051623652
0.058890192
0.066701214
0.073732618
0.078979297
0.081682406
0.081227522
0.077074645
0.068751653
0.055936686
0.038749277
0.016602429
0.043999862
0.044791142
0.04770928
0.053270137
0.060639777
0.068389175
0.075249255
0.080266079
0.082717028
0.082009686
0.077619856
0.069088977
0.056108048
0.038807751
0.016608172
0.045187294
0.046055325
0.049195044
0.054972697
0.062409363
0.07007433
0.076751727
0.081534896
0.083734102
0.082776763
0.078153483
0.06941857
0.056275282
0.03886487
0.016613938
0.046478167
0.047425119
0.050769169
0.056725759
0.064194962
0.07175453
0.078239093
0.082785618
0.084733694
0.083528918
0.078675702
0.06974057
0.056438467
0.038920654
0.016619724
0.047876637
0.048901585
0.052427396
0.058523827
0.065992887
0.073427806
0.079710328
0.084018023
0.085715866
0.084266306
0.079186678
0.070055104
0.056597672
0.038975122
0.016625526
0.049385363
0.050484174
0.054164725
0.060361499
0.067799595
0.075092201
0.081164946
0.085231928
0.086680669
0.084989067
0.079686561
0.070362287
0.056752961
0.03902829
0.016631342
0.05100524
0.052170713
0.055975581
0.062233578
0.069611826
0.076745765
0.082602323
0.086427158
0.087628143
0.085697327
0.080175487
0.070662227
0.056904391
0.03908017
0.016637168
0.052735221
0.053957455
0.057853925
0.064134971
0.071426358
0.078387109
0.084021852
0.08760354
0.088558317
0.086391196
0.080653581
0.070955017
0.057052013
0.039130776
0.016643002
0.054572257
0.0558392
0.059793414
0.0660608
0.073239965
0.080014944
0.08542296
0.088760897
0.089471207
0.087070771
0.08112095
0.071240745
0.057195874
0.039180117
0.016648839
0.056511333
0.057809429
0.061787402
0.068006151
0.075050081
0.081628017
0.086805096
0.089899044
0.090366813
0.087736129
0.081577689
0.071519484
0.057336012
0.039228199
0.016654678
0.058545627
0.059860496
0.06382903
0.06996624
0.07685434
0.083225135
0.088167718
0.091017788
0.091245116
0.088387331
0.082023879
0.071791299
0.057472462
0.039275029
0.016660515
0.060666688
0.061983701
0.065911168
0.071936911
0.078650496
0.084805157
0.089510293
0.092116923
0.092106081
0.089024419
0.082459584
0.072056244
0.05760525
0.03932061
0.016666348
0.062864641
0.064169662
0.068026994
0.073914164
0.080436406
0.086366985
0.09083229
0.093196226
0.09294965
0.089647415
0.082884852
0.072314362
0.057734399
0.039364942
0.016672172
0.065128648
0.066408598
0.070169739
0.075894137
0.082210018
0.087909552
0.092133177
0.094255457
0.093775745
0.090256323
0.083299717
0.072565684
0.057859924
0.039408025
0.016677985
0.067447289
0.068690514
0.072332716
0.077873095
0.083969358
0.08943182
0.093412414
0.095294358
0.094584264
0.090851121
0.083704195
0.072810231
0.057981833
0.039449855
0.016683783
0.069808911
0.071005396
0.074509361
0.079847418
0.085712515
0.090932768
0.094669458
0.09631265
0.095375081
0.091431771
0.084098282
0.073048009
0.058100129
0.039490426
0.016689564
0.072201942
0.073343395
0.076693268
0.08181359
0.087437636
0.092411397
0.095903754
0.097310033
0.096148046
0.091998208
0.08448196
0.073279015
0.058214805
0.039529729
0.016695324
0.074615151
0.075694978
0.078878226
0.0837682
0.089142917
0.093866717
0.097114741
0.098286188
0.096902986
0.092550347
0.084855191
0.073503231
0.05832585
0.039567752
0.016701059
0.07703785
0.078051057
0.081058259
0.085707938
0.090826599
0.095297756
0.09830185
0.099240775
0.097639706
0.093088081
0.08521792
0.073720626
0.058433244
0.039604482
0.016706766
0.07946005
0.080403092
0.083227657
0.087629601
0.092486969
0.096703554
0.099464508
0.10017344
0.098357989
0.093611283
0.085570073
0.073931159
0.058536958
0.0396399
0.01671244
0.081872557
0.082743158
0.085381019
0.089530103
0.094122357
0.098083168
0.10060214
0.10108382
0.099057599
0.094119806
0.085911562
0.074134775
0.058636959
0.039673987
0.016718079
0.084267033
0.085063998
0.087513275
0.091406485
0.095731145
0.099435673
0.10171417
0.10197153
0.099738286
0.094613487
0.086242282
0.074331407
0.058733206
0.03970672
0.016723677
0.086636015
0.087359042
0.089619715
0.09325593
0.097311767
0.10076017
0.10280004
0.1028362
0.10039979
0.095092147
0.086562115
0.07452098
0.058825651
0.039738074
0.01672923
0.088972909
0.089622416
0.09169601
0.095075775
0.098862725
0.10205579
0.10385919
0.10367744
0.10104184
0.095555599
0.086870933
0.074703407
0.058914239
0.039768019
0.016734733
0.091271958
0.091848932
0.093738219
0.096863526
0.10038259
0.10332171
0.1048911
0.10449489
0.10166417
0.096003646
0.087168598
0.074878595
0.058998913
0.039796527
0.016740182
0.093528201
0.094034062
0.095742802
0.098616873
0.10187001
0.10455713
0.10589527
0.1052882
0.10226651
0.096436093
0.087454966
0.075046447
0.05907961
0.039823567
0.016745571
0.095737423
0.096173907
0.097706613
0.1003337
0.10332373
0.10576131
0.1068712
0.10605701
0.10284861
0.096852743
0.087729895
0.075206861
0.059156266
0.039849104
0.016750895
0.097896092
0.098265161
0.099626898
0.10201209
0.10474259
0.10693359
0.10781849
0.10680102
0.10341023
0.097253409
0.08799324
0.075359734
0.059228815
0.039873108
0.016756148
0.1000013
0.10030507
0.10150128
0.10365033
0.10612555
0.10807333
0.10873674
0.10751996
0.10395114
0.097637913
0.088244865
0.075504967
0.059297192
0.039895545
0.016761326
0.10205072
0.10229137
0.10332776
0.10524693
0.10747166
0.10918001
0.10962561
0.10821359
0.10447115
0.098006097
0.088484641
0.075642464
0.059361335
0.039916383
0.016766421
0.1040425
0.10422229
0.10510467
0.10680061
0.1087801
0.11025313
0.11048481
0.10888169
0.10497011
0.09835782
0.088712453
0.075772137
0.059421184
0.039935593
0.016771429
0.10597528
0.10609643
0.10683066
0.10831028
0.11005017
0.11129232
0.11131414
0.10952413
0.10544788
0.098692969
0.088928201
0.075893906
0.059476686
0.039953148
0.016776343
0.10784807
0.10791281
0.10850471
0.10977506
0.1112813
0.11229725
0.11211341
0.11014079
0.10590438
0.099011456
0.089131805
0.076007706
0.059527794
0.039969023
0.016781159
0.10966024
0.10967074
0.11012604
0.11119426
0.11247303
0.11326768
0.11288252
0.11073163
0.10633955
0.099313225
0.089323206
0.076113482
0.059574469
0.039983198
0.016785869
0.11141147
0.11136986
0.11169416
0.11256739
0.11362502
0.11420347
0.11362143
0.11129662
0.10675338
0.099598251
0.089502366
0.076211198
0.059616682
0.039995656
0.01679047
0.11310171
0.11301003
0.11320879
0.11389411
0.11473706
0.11510454
0.11433016
0.11183583
0.10714592
0.099866542
0.089669275
0.076300831
0.059654413
0.040006386
0.016794955
0.11473111
0.11459135
0.11466984
0.11517425
0.11580901
0.11597089
0.11500879
0.11234934
0.10751722
0.10011814
0.089823946
0.076382379
0.059687653
0.040015381
0.016799319
0.11630005
0.11611413
0.11607741
0.11640779
0.11684089
0.11680258
0.11565744
0.1128373
0.10786742
0.10035313
0.089966418
0.076455855
0.059716403
0.04002264
0.016803557
0.11780905
0.1175788
0.11743177
0.11759481
0.11783276
0.11759977
0.1162763
0.1132999
0.10819666
0.1005716
0.090096755
0.076521292
0.059740677
0.040028165
0.016807666
0.11925877
0.11898596
0.11873332
0.11873556
0.11878482
0.11836265
0.11686561
0.11373735
0.10850514
0.10077371
0.090215048
0.07657874
0.0597605
0.040031966
0.01681164
0.12064997
0.12033632
0.11998256
0.11983035
0.1196973
0.1190915
0.11742565
0.11414995
0.10879308
0.10095963
0.090321412
0.076628267
0.059775906
0.040034058
0.016815476
0.12198353
0.12163068
0.12118011
0.1208796
0.12057055
0.11978663
0.11795675
0.11453799
0.10906076
0.10112955
0.090415985
0.07666996
0.059786944
0.040034459
0.01681917
0.12326039
0.12286991
0.12232667
0.12188382
0.12140496
0.12044842
0.11845927
0.11490181
0.10930845
0.1012837
0.090498928
0.076703922
0.059793671
0.040033193
0.01682272
0.12448155
0.12405496
0.12342301
0.12284359
0.12220098
0.12107728
0.11893362
0.1152418
0.1095365
0.10142235
0.090570426
0.076730272
0.059796156
0.04003029
0.016826122
0.12564806
0.12518684
0.12446998
0.12375953
0.12295914
0.12167368
0.11938023
0.11555835
0.10974523
0.10154576
0.090630683
0.076749147
0.059794478
0.040025784
0.016829373
0.12676104
0.12626658
0.12546845
0.12463236
0.12367998
0.12223811
0.11979958
0.11585191
0.10993504
0.10165424
0.090679925
0.0767607
0.059788726
0.040019714
0.016832473
0.1278216
0.12729528
0.12641937
0.12546281
0.12436413
0.12277111
0.12019217
0.11612292
0.11010632
0.10174813
0.090718397
0.076765097
0.059778999
0.040012122
0.016835418
0.12883093
0.12827406
0.1273237
0.12625168
0.12501223
0.12327327
0.12055851
0.11637188
0.1102595
0.10182776
0.090746365
0.076762522
0.059765409
0.040003056
0.016838209
0.12979021
0.12920406
0.12818247
0.1269998
0.12562496
0.12374517
0.12089918
0.11659929
0.11039502
0.10189351
0.090764111
0.076753173
0.059748072
0.039992569
0.016840844
0.13070067
0.13008646
0.12899672
0.12770805
0.12620307
0.12418747
0.12121475
0.11680568
0.11051335
0.10194576
0.090771937
0.076737263
0.05972712
0.039980717
0.016843323
0.13156356
0.13092246
0.12976752
0.12837731
0.1267473
0.12460082
0.12150583
0.11699161
0.11061498
0.10198493
0.090770163
0.076715018
0.05970269
0.039967559
0.016845647
0.13238014
0.13171328
0.13049599
0.12900855
0.12725845
0.12498592
0.12177305
0.11715764
0.11070042
0.10201143
0.090759122
0.076686677
0.059674928
0.03995316
0.016847815
0.1331517
0.13246017
0.13118323
0.12960271
0.12773734
0.1253435
0.12201705
0.11730438
0.11077018
0.10202572
0.090739167
0.076652493
0.059643991
0.039937587
0.016849829
0.13387955
0.13316439
0.13183041
0.1301608
0.12818482
0.12567428
0.12223852
0.11743242
0.11082481
0.10202825
0.090710661
0.076612731
0.059610041
0.039920911
0.016851691
0.13456499
0.13382722
0.13243869
0.13068383
0.12860176
0.12597905
0.12243813
0.11754239
0.11086487
0.1020195
0.090673983
0.076567665
0.059573248
0.039903207
0.016853402
0.13520938
0.13444994
0.13300926
0.13117283
0.12898905
0.12625858
0.1226166
0.11763494
0.11089092
0.10199994
0.090629521
0.076517578
0.059533789
0.039884549
0.016854966
0.13581404
0.13503386
0.13354332
0.13162887
0.12934761
0.12651368
0.12277465
0.11771072
0.11090353
0.10197008
0.090577673
0.076462762
0.059491844
0.039865017
0.016856384
0.13638031
0.13558027
0.13404207
0.132053
0.12967837
0.12674516
0.12291301
0.11777037
0.11090331
0.10193041
0.090518842
0.076403512
0.059447597
0.039844689
0.016857661
0.13690953
0.13609048
0.13450671
0.13244631
0.12998225
0.12695385
0.12303242
0.11781458
0.11089083
0.10188145
0.09045344
0.076340131
0.059401236
0.039823647
0.0168588
0.13740304
0.13656579
0.13493846
0.13280986
0.13026021
0.12714057
0.12313362
0.11784401
0.1108667
0.10182369
0.090381877
0.076272921
0.059352948
0.039801969
0.016859805
0.13786217
0.13700748
0.13533851
0.13314474
0.13051318
0.12730617
0.12321735
0.11785932
0.1108315
0.10175766
0.090304565
0.076202184
0.059302922
0.039779737
0.016860681
0.1382882
0.13741682
0.13570807
0.13345201
0.13074212
0.12745147
0.12328436
0.11786119
0.11078584
0.10168386
0.090221915
0.076128222
0.059251342
0.039757028
0.016861431
0.13868244
0.13779508
0.1360483
0.13373273
0.13094795
0.1275773
0.12333539
0.11785027
0.11073028
0.10160278
0.090134331
0.076051331
0.059198393
0.039733921
0.016862062
0.13904614
0.13814347
0.13636036
0.13398797
0.13113161
0.12768447
0.12337117
0.11782723
0.11066541
0.10151493
0.090042212
0.075971804
0.059144254
0.039710489
0.016862577
0.13938052
0.13846322
0.13664539
0.13421873
0.13129401
0.12777381
0.12339241
0.1177927
0.1105918
0.10142078
0.089945947
0.075889926
0.059089099
0.039686806
0.016862982
0.13968681
0.13875549
0.13690451
0.13442604
0.13143604
0.1278461
0.12339983
0.11774731
0.11051
0.10132081
0.089845917
0.075805972
0.059033095
0.039662939
0.016863281
0.13996615
0.13902143
0.13713878
0.13461088
0.13155859
0.12790211
0.12339411
0.11769167
0.11042055
0.10121548
0.08974249
0.075720211
0.058976406
0.039638955
0.016863481
0.14021968
0.13926214
0.13734927
0.13477421
0.13166251
0.12794262
0.12337593
0.11762639
0.11032398
0.10110524
0.089636023
0.075632899
0.058919184
0.039614916
0.016863586
0.14044851
0.13947872
0.137537
0.13491698
0.13174864
0.12796835
0.12334594
0.11755205
0.11022079
0.10099051
0.089526858
0.075544282
0.058861577
0.03959088
0.0168636
0.14065369
0.13967219
0.13770296
0.13504008
0.13181779
0.12798003
0.12330479
0.11746921
0.11011147
0.1008717
0.089415325
0.075454597
0.058803724
0.039566902
0.016863529
0.14083625
0.13984357
0.1378481
0.13514439
0.13187074
0.12797836
0.12325309
0.11737841
0.1099965
0.10074923
0.089301738
0.075364065
0.058745754
0.039543032
0.016863378
0.14099718
0.13999384
0.13797336
0.13523078
0.13190827
0.12796401
0.12319143
0.11728018
0.10987635
0.10062346
0.089186399
0.0752729
0.058687792
0.039519316
0.016863152
0.14113745
0.14012393
0.13807963
0.13530008
0.13193113
0.12793764
0.12312041
0.11717504
0.10975144
0.10049478
0.089069596
0.075181304
0.058629952
0.039495798
0.016862854
0.14125798
0.14023477
0.13816779
0.13535307
0.13194002
0.1278999
0.12304058
0.11706348
0.1096222
0.10036353
0.088951602
0.075089465
0.058572342
0.039472517
0.01686249
0.14135968
0.14032723
0.13823869
0.13539055
0.13193564
0.1278514
0.12295249
0.11694596
0.10948905
0.10023004
0.08883268
0.074997565
0.058515063
0.03944951
0.016862064
0.14144341
0.14040217
0.13829312
0.13541327
0.13191869
0.12779275
0.12285667
0.11682296
0.10935237
0.10009465
0.088713078
0.074905773
0.058458208
0.039426809
0.016861579
0.14151003
0.14046043
0.1383319
0.13542195
0.13188982
0.12772451
0.12275362
0.11669492
0.10921254
0.099957667
0.088593033
0.074814249
0.058401865
0.039404445
0.01686104
0.14156036
0.14050282
0.1383558
0.13541732
0.13184966
0.12764728
0.12264386
0.11656227
0.10906994
0.099819383
0.088472771
0.074723145
0.058346115
0.039382445
0.016860451