/*--------------------------------*- C++ -*----------------------------------*\
| =========                 |                                                 |
| \\      /  F ield         | OpenFOAM: The Open Source CFD Toolbox           |
|  \\    /   O peration     | Version:  2506                                  |
|   \\  /    A nd           | Website:  www.openfoam.com                      |
|    \\/     M anipulation  |                                                 |
\*---------------------------------------------------------------------------*/
FoamFile
{
    version     2.0;
    format      ascii;
    arch        "LSB;label=32;scalar=64";
    class       volScalarField;
    location    "5000/water";
    object      epsilon;
}
// * * * * * * * * * * * * * * * * * * * * * * * * * * * * * * * * * * * * * //

dimensions      [0 2 -3 0 0 0 0];

internalField   nonuniform List<scalar> 
6000
(
0.00010005327
0.00010005311
0.00010005314
0.00010005327
0.00010005342
0.00010005363
0.0001000539
0.00010005427
0.00010005511
0.00010005982
0.00010010144
0.00010049509
0.00010424183
0.00014354191
0.00073980483
8.5785229e-05
8.5785556e-05
8.5786111e-05
8.5786982e-05
8.5788138e-05
8.5789633e-05
8.5791527e-05
8.5794043e-05
8.5798789e-05
8.581901e-05
8.5962524e-05
8.7071869e-05
9.5619929e-05
0.00016974081
0.0010520452
7.4267219e-05
7.4268013e-05
7.426896e-05
7.4270365e-05
7.4272213e-05
7.4274585e-05
7.4277581e-05
7.4281747e-05
7.4291154e-05
7.4336305e-05
7.4633748e-05
7.6634978e-05
9.0041817e-05
0.00019500629
0.0013270628
6.4852864e-05
6.485355e-05
6.4854661e-05
6.4856389e-05
6.4858676e-05
6.4861616e-05
6.4865387e-05
6.4871112e-05
6.4886838e-05
6.4967364e-05
6.5458677e-05
6.84101e-05
8.6285088e-05
0.00021715658
0.0015411415
5.7072087e-05
5.7072704e-05
5.7073918e-05
5.7075861e-05
5.7078448e-05
5.7081784e-05
5.7086167e-05
5.7093598e-05
5.7117581e-05
5.7242267e-05
5.7947685e-05
6.180797e-05
8.3505097e-05
0.0002348614
0.0016895689
5.0576692e-05
5.0577312e-05
5.0578592e-05
5.0580667e-05
5.0583434e-05
5.0587016e-05
5.0591882e-05
5.0601216e-05
5.0635234e-05
5.0810032e-05
5.1732149e-05
5.6406881e-05
8.1259069e-05
0.00024828861
0.0017792142
4.5104569e-05
4.5105188e-05
4.5106499e-05
4.5108638e-05
4.5111496e-05
4.5115213e-05
4.5120483e-05
4.5131961e-05
4.5177479e-05
4.5405527e-05
4.6535255e-05
5.1917397e-05
7.9376731e-05
0.00025838324
0.0018218943
4.0455895e-05
4.0456503e-05
4.045782e-05
4.0459977e-05
4.0462859e-05
4.0466628e-05
4.0472257e-05
4.0486117e-05
4.0544208e-05
4.0826355e-05
4.2148994e-05
4.8144563e-05
7.7837439e-05
0.00026629433
0.0018300463
3.6476506e-05
3.6477102e-05
3.6478406e-05
3.6480546e-05
3.6483399e-05
3.6487156e-05
3.6493116e-05
3.6509564e-05
3.6580944e-05
3.6916576e-05
3.8416896e-05
4.4958845e-05
7.6693461e-05
0.00027309124
0.0018145574
3.304611e-05
3.3046691e-05
3.304797e-05
3.3050065e-05
3.3052847e-05
3.3056537e-05
3.3062809e-05
3.3082024e-05
3.3167159e-05
3.3555102e-05
3.5220975e-05
4.2274823e-05
7.6025068e-05
0.00027965054
0.0017840405
3.0069857e-05
3.007042e-05
3.0071664e-05
3.0073692e-05
3.0076366e-05
3.0079941e-05
3.0086514e-05
3.0108667e-05
3.0207924e-05
3.0647227e-05
3.2471858e-05
4.0036357e-05
7.5917105e-05
0.00028663427
0.001744886
2.7472233e-05
2.7472777e-05
2.7473976e-05
2.7475917e-05
2.747845e-05
2.7481869e-05
2.7488744e-05
2.7514021e-05
2.7627825e-05
2.8118369e-05
3.010146e-05
3.820687e-05
7.6449192e-05
0.00029450875
0.0017016307
2.5192577e-05
2.5193098e-05
2.5194246e-05
2.5196082e-05
2.5198442e-05
2.520167e-05
2.520887e-05
2.5237507e-05
2.5366478e-05
2.5909414e-05
2.805763e-05
3.6763308e-05
7.7693097e-05
0.0003035735
0.00165739
2.3181748e-05
2.3182245e-05
2.3183333e-05
2.3185048e-05
2.3187207e-05
2.3190219e-05
2.3197794e-05
2.323011e-05
2.3375184e-05
2.3973213e-05
2.6300284e-05
3.5692527e-05
7.9712907e-05
0.00031398658
0.0016142425
2.1399629e-05
2.14001e-05
2.140112e-05
2.1402697e-05
2.140463e-05
2.1407412e-05
2.1415452e-05
2.1451882e-05
2.1614405e-05
2.2271964e-05
2.4798652e-05
3.4989203e-05
8.2565442e-05
0.00032578296
0.0015735325
1.9813231e-05
1.9813672e-05
1.9814616e-05
1.981604e-05
1.9817725e-05
1.9820279e-05
1.9828922e-05
1.9870043e-05
2.0051847e-05
2.0775227e-05
2.3529325e-05
3.4654636e-05
8.6299521e-05
0.00033888748
0.0015360911
1.8395236e-05
1.8395645e-05
1.8396506e-05
1.8397761e-05
1.8399183e-05
1.8401531e-05
1.8410972e-05
1.8457531e-05
1.8660989e-05
1.9458432e-05
2.2474895e-05
3.4695971e-05
9.095345e-05
0.00035312607
0.0015023901
1.7122886e-05
1.7123259e-05
1.7124028e-05
1.7125102e-05
1.712625e-05
1.7128438e-05
1.7138942e-05
1.7191872e-05
1.7419954e-05
1.8301752e-05
2.1622992e-05
3.5125546e-05
9.6550686e-05
0.00036823944
0.0014726449
1.5977101e-05
1.5977436e-05
1.5978105e-05
1.5978984e-05
1.5979859e-05
1.598196e-05
1.5993865e-05
1.6054312e-05
1.6310628e-05
1.7289248e-05
2.0965619e-05
3.5960111e-05
0.00010309413
0.00038390222
0.0014468811
1.4941799e-05
1.4942091e-05
1.4942652e-05
1.4943329e-05
1.494394e-05
1.4946058e-05
1.4959787e-05
1.5029124e-05
1.5317979e-05
1.6408225e-05
2.049868e-05
3.7219755e-05
0.00011055991
0.00039974861
0.00142498
1.4003348e-05
1.4003595e-05
1.4004041e-05
1.4004511e-05
1.400488e-05
1.4007153e-05
1.402322e-05
1.4103071e-05
1.442952e-05
1.5648751e-05
2.0221625e-05
3.8926414e-05
0.00011889194
0.00041540307
0.0014067117
1.3150142e-05
1.315034e-05
1.3150665e-05
1.3150927e-05
1.315109e-05
1.3153695e-05
1.3172714e-05
1.3264971e-05
1.3634892e-05
1.5003284e-05
2.0137155e-05
4.1101901e-05
0.00012799852
0.0004305123
0.0013917631
1.2372247e-05
1.2372393e-05
1.2372592e-05
1.237265e-05
1.2372659e-05
1.2375814e-05
1.2398506e-05
1.2505359e-05
1.2925534e-05
1.446641e-05
2.0250947e-05
4.3765469e-05
0.00013775238
0.00044477369
0.0013797649
1.1661123e-05
1.1661215e-05
1.1661286e-05
1.166115e-05
1.1661074e-05
1.1665043e-05
1.1692246e-05
1.1816209e-05
1.2294425e-05
1.4034634e-05
2.0571326e-05
4.6930996e-05
0.00014799478
0.00045795585
0.0013703185
1.1009401e-05
1.1009437e-05
1.1009378e-05
1.1009066e-05
1.1008994e-05
1.101409e-05
1.104677e-05
1.1190715e-05
1.1735881e-05
1.3706238e-05
2.1108871e-05
5.0604014e-05
0.00015854368
0.00046990849
0.0013630208
1.0410692e-05
1.041067e-05
1.0410485e-05
1.0410022e-05
1.0410062e-05
1.0416652e-05
1.0455917e-05
1.0623112e-05
1.1245399e-05
1.3481165e-05
2.1875889e-05
5.4778859e-05
0.00016920526
0.00048056142
0.0013574861
9.8594384e-06
9.8593586e-06
9.8590515e-06
9.8584721e-06
9.8587577e-06
9.8672657e-06
9.9143754e-06
1.0108535e-05
1.0819533e-05
1.3360938e-05
2.2885735e-05
5.9436317e-05
0.00017978706
0.00048991474
0.001353362
9.3507874e-06
9.3506504e-06
9.3502304e-06
9.3495787e-06
9.3502669e-06
9.3611826e-06
9.4175684e-06
9.6428999e-06
1.045581e-05
1.3348574e-05
2.4151946e-05
6.4542152e-05
0.00019011095
0.00049802341
0.0013503406
8.8804873e-06
8.8802951e-06
8.8797751e-06
8.879106e-06
8.8803818e-06
8.8942644e-06
8.9615474e-06
9.2228179e-06
1.0152655e-05
1.3448503e-05
2.5687206e-05
7.0046824e-05
0.00020002406
0.00050498001
0.0013481619
8.4448007e-06
8.4445568e-06
8.4439543e-06
8.4433345e-06
8.4454129e-06
8.4628989e-06
8.5429123e-06
8.8455163e-06
9.9093487e-06
1.3666457e-05
2.7502143e-05
7.5886621e-05
0.00020940613
0.0005108985
0.0013466143
8.0404324e-06
8.0401416e-06
8.0394792e-06
8.0389884e-06
8.0421174e-06
8.0639293e-06
8.1587433e-06
8.508784e-06
9.7259953e-06
1.4009323e-05
2.9604058e-05
8.1986182e-05
0.00021817297
0.000515901
0.00134553
7.664468e-06
7.6641372e-06
7.663443e-06
7.6631755e-06
7.6676392e-06
7.6945949e-06
7.8065457e-06
8.2109262e-06
9.6034999e-06
1.4484935e-05
3.1995646e-05
8.8262229e-05
0.00022627582
0.0005201082
0.0013447795
7.3143234e-06
7.3139614e-06
7.3132697e-06
7.3133352e-06
7.319458e-06
7.3524816e-06
7.4842048e-06
7.950732e-06
9.5435554e-06
1.5101802e-05
3.4673865e-05
9.4628078e-05
0.00023369766
0.00052363336
0.0013442658
6.9877006e-06
6.9873184e-06
6.9866703e-06
6.9871959e-06
6.9953468e-06
7.0354818e-06
7.1899496e-06
7.7274515e-06
9.5486283e-06
1.5868742e-05
3.7629068e-05
0.00010099842
0.00024044745
0.00052657911
0.0013439174
6.6825513e-06
6.6821625e-06
6.6816065e-06
6.6827386e-06
6.6933357e-06
6.741759e-06
6.9223234e-06
7.5407805e-06
9.6219392e-06
1.6794438e-05
4.0844541e-05
0.00010729381
0.00024655353
0.00052903629
0.0013436835
6.3970453e-06
6.396666e-06
6.3962591e-06
6.3981651e-06
6.411682e-06
6.4697206e-06
6.6801611e-06
7.3908531e-06
9.7674314e-06
1.7886905e-05
4.4296529e-05
0.00011344428
0.00025205716
0.0005310841
0.0013435288
6.1295436e-06
6.129193e-06
6.129001e-06
6.1318719e-06
6.1488438e-06
6.2179935e-06
6.4625723e-06
7.2782395e-06
9.9897187e-06
1.9152894e-05
4.7954808e-05
0.00011939198
0.0002570069
0.00053279086
0.0013434301
5.8785752e-06
5.8782757e-06
5.8783746e-06
5.8824275e-06
5.903459e-06
5.9854055e-06
6.2689287e-06
7.2039478e-06
1.0294006e-05
2.0597266e-05
5.1783773e-05
0.00012509231
0.00026145422
0.00053421506
0.001343373
5.6428172e-06
5.642595e-06
5.6430719e-06
5.6485531e-06
5.6743264e-06
5.7709695e-06
6.0988564e-06
7.1694287e-06
1.0685974e-05
2.2222385e-05
5.5743958e-05
0.00013051409
0.00026545026
0.00053540647
0.0013433493
5.4210776e-06
5.4209629e-06
5.4219174e-06
5.4291059e-06
5.4603909e-06
5.5738715e-06
5.9522322e-06
7.1765787e-06
1.1171622e-05
2.402758e-05
5.9793836e-05
0.00013563849
0.00026904378
0.00053640725
0.0013433553
5.2122808e-06
5.2123081e-06
5.2138535e-06
5.2230651e-06
5.26073e-06
5.3934608e-06
5.8291825e-06
7.2277423e-06
1.1757062e-05
2.6008735e-05
6.389172e-05
0.00014045745
0.00027228005
0.00053725289
0.0013433902
5.0154542e-06
5.0156629e-06
5.0179281e-06
5.0295196e-06
5.0745437e-06
5.2292435e-06
5.7300867e-06
7.3257058e-06
1.2448271e-05
2.8158068e-05
6.7997575e-05
0.00014497164
0.00027520025
0.00053797313
0.0013434553
4.8297171e-06
4.8301524e-06
4.8332834e-06
4.847658e-06
4.9011459e-06
5.0808782e-06
5.6555823e-06
7.4736833e-06
1.3250796e-05
3.0464119e-05
7.2074575e-05
0.00014918835
0.00027784139
0.00053859275
0.0013435527
4.654271e-06
4.6549842e-06
4.6591465e-06
4.6767597e-06
4.739957e-06
4.9481738e-06
5.6065719e-06
7.6752861e-06
1.4169424e-05
3.2911987e-05
7.6090277e-05
0.00015311953
0.00028023648
0.00053913229
0.0013436849
4.4883913e-06
4.4894404e-06
4.4948214e-06
4.5161875e-06
4.5904991e-06
4.8310889e-06
5.5842316e-06
7.9344756e-06
1.5207849e-05
3.5483783e-05
8.0017361e-05
0.00015678017
0.00028241474
0.00053960872
0.0013438547
4.3314193e-06
4.3328703e-06
4.3396818e-06
4.3653818e-06
4.452392e-06
4.7297343e-06
5.5900196e-06
8.2554924e-06
1.6368331e-05
3.8159287e-05
8.3833933e-05
0.00016018692
0.00028440196
0.00054003599
0.0013440645
4.1827562e-06
4.1846838e-06
4.1931653e-06
4.2238553e-06
4.3253508e-06
4.6443763e-06
5.6256833e-06
8.64276e-06
1.7651409e-05
4.0916739e-05
8.7523434e-05
0.00016335711
0.00028622083
0.00054042551
0.0013443165
4.0418571e-06
4.0443457e-06
4.0547683e-06
4.0911891e-06
4.2091847e-06
4.5754417e-06
5.693263e-06
9.10076e-06
1.9055658e-05
4.3733691e-05
9.1074256e-05
0.00016630804
0.00028789123
0.00054078658
0.0013446125
3.9082261e-06
3.9113713e-06
3.9240414e-06
3.96703e-06
4.103797e-06
4.5235248e-06
5.7950909e-06
9.6338803e-06
2.0577552e-05
4.658786e-05
9.447915e-05
0.00016905655
0.0002894306
0.00054112679
0.0013449537
3.781412e-06
3.7853219e-06
3.8005859e-06
3.8510876e-06
4.0091864e-06
4.4893953e-06
5.9337827e-06
1.0246237e-05
2.2211425e-05
4.9457897e-05
9.7734539e-05
0.00017161867
0.00029085417
0.00054145227
0.001345341
3.6610043e-06
3.6658014e-06
3.6840513e-06
3.7431338e-06
3.9254494e-06
4.4740067e-06
6.1122181e-06
1.0941479e-05
2.3949551e-05
5.2324022e-05
0.00010083981
0.0001740095
0.00029217524
0.00054176798
0.0013457749
3.5466302e-06
3.5524531e-06
3.5741321e-06
3.6430016e-06
3.8527838e-06
4.4785051e-06
6.3335102e-06
1.172258e-05
2.5782348e-05
5.5168499e-05
0.00010379664
0.00017624311
0.00029340545
0.00054207792
0.0013462556
3.4379516e-06
3.4449572e-06
3.470567e-06
3.5505856e-06
3.7914931e-06
4.5042378e-06
6.600958e-06
1.2591637e-05
2.7698674e-05
5.7975926e-05
0.00010660842
0.00017833256
0.00029455494
0.00054238527
0.0013467828
3.3346627e-06
3.3430286e-06
3.373137e-06
3.4658429e-06
3.7419925e-06
4.5527598e-06
6.9179827e-06
1.3549688e-05
2.9686211e-05
6.0733357e-05
0.00010927977
0.00018028983
0.00029563258
0.00054269259
0.001347356
3.2364878e-06
3.2464154e-06
3.281665e-06
3.3887949e-06
3.7048152e-06
4.6258384e-06
7.2880455e-06
1.4596555e-05
3.1731891e-05
6.3430277e-05
0.00011181612
0.00018212593
0.00029664614
0.00054300189
0.0013479746
3.1431799e-06
3.1548974e-06
3.1960156e-06
3.3195298e-06
3.6806199e-06
4.7254524e-06
7.7145468e-06
1.5730746e-05
3.382234e-05
6.6058467e-05
0.0001142234
0.00018385092
0.00029760241
0.00054331477
0.0013486378
3.0545192e-06
3.0682854e-06
3.1160958e-06
3.2582055e-06
3.6701986e-06
4.8537869e-06
8.2007093e-06
1.6949409e-05
3.5944302e-05
6.8611787e-05
0.00011650785
0.00018547397
0.00029850735
0.00054363245
0.0013493444
2.9703119e-06
2.9864203e-06
3.0418551e-06
3.2050543e-06
3.6744852e-06
5.0132197e-06
8.7494482e-06
1.8248349e-05
3.8085015e-05
7.1085926e-05
0.00011867579
0.00018700343
0.00029936619
0.00054395589
0.0013500934
2.8903898e-06
2.9091733e-06
2.9732878e-06
3.1603869e-06
3.6945633e-06
5.2062983e-06
9.3632347e-06
1.9622123e-05
4.0232513e-05
7.3478131e-05
0.00012073351
0.00018844688
0.00030018354
0.00054428578
0.0013508836
2.8146096e-06
2.836446e-06
2.9104344e-06
3.1245986e-06
3.731674e-06
5.4357062e-06
1.004396e-05
2.1064181e-05
4.2375859e-05
7.5786948e-05
0.00012268719
0.00018981121
0.00030096345
0.00054462265
0.0013517137
2.7428528e-06
2.7681709e-06
2.8533843e-06
3.098175e-06
3.7872216e-06
5.7042164e-06
1.0792809e-05
2.256707e-05
4.4505285e-05
7.8011979e-05
0.00012454279
0.00019110267
0.00030170949
0.00054496683
0.0013525823
2.6750262e-06
2.7043127e-06
2.8022791e-06
3.0816992e-06
3.862777e-06
6.0146316e-06
1.1610155e-05
2.4122664e-05
4.6612262e-05
8.0153673e-05
0.00012630606
0.00019232691
0.00030242477
0.00054531836
0.0013534881
2.6110622e-06
2.6448693e-06
2.7573159e-06
3.0758592e-06
3.9600781e-06
6.3697123e-06
1.2495478e-05
2.5722423e-05
4.8689514e-05
8.2213152e-05
0.00012798249
0.00019348921
0.00030311295
0.00054567958
0.0013544294
2.5509198e-06
2.5898742e-06
2.718752e-06
3.0814557e-06
4.0810246e-06
6.7720926e-06
1.3447327e-05
2.7357636e-05
5.0730962e-05
8.4192052e-05
0.00012957729
0.00019459431
0.00030377609
0.00054604532
0.0013554044
2.494586e-06
2.5393984e-06
2.6869098e-06
3.0994095e-06
4.2276673e-06
7.2241863e-06
1.4463315e-05
2.9019661e-05
5.2731649e-05
8.609239e-05
0.00013109537
0.00019564635
0.00030441574
0.00054641398
0.001356411
2.4420772e-06
2.4935535e-06
2.6621824e-06
3.1307692e-06
4.4021887e-06
7.7280875e-06
1.5540154e-05
3.0700124e-05
5.4687631e-05
8.7916449e-05
0.0001325413
0.00019664905
0.00030503329
0.00054678556
0.001357447
2.3934419e-06
2.4524951e-06
2.6450395e-06
3.1767179e-06
4.606876e-06
8.2854729e-06
1.6673739e-05
3.2391089e-05
5.6595868e-05
8.966672e-05
0.00013391946
0.00019760628
0.00030563175
0.00054715703
0.0013585105
2.3487625e-06
2.4164266e-06
2.6360347e-06
3.2385776e-06
4.8440836e-06
8.8975082e-06
1.7859257e-05
3.4085181e-05
5.8454118e-05
9.1345826e-05
0.00013523397
0.00019852138
0.00030621176
0.00054752794
0.0013595997
2.3081594e-06
2.3856042e-06
2.6358124e-06
3.3178122e-06
5.1161852e-06
9.5647685e-06
1.9091327e-05
3.5775673e-05
6.0260823e-05
9.2956454e-05
0.00013648859
0.0001993969
0.00030677293
0.00054790013
0.0013607134
2.2717941e-06
2.3603414e-06
2.6451157e-06
3.4160263e-06
5.4255164e-06
1.0287176e-05
2.0364156e-05
3.7456525e-05
6.2015002e-05
9.4501293e-05
0.00013768677
0.00020023507
0.00030731596
0.00054827482
0.0013618504
2.2398737e-06
2.3410154e-06
2.6647937e-06
3.5349598e-06
5.7743071e-06
1.1063963e-05
2.1671691e-05
3.9122403e-05
6.3716165e-05
9.598303e-05
0.0001388318
0.00020103834
0.00030784122
0.00054865323
0.0013630097
2.2126561e-06
2.3280735e-06
2.6958092e-06
3.6764765e-06
6.164608e-06
1.1893661e-05
2.3007782e-05
4.0768662e-05
6.5364247e-05
9.74044e-05
0.00013992713
0.00020180983
0.00030834747
0.00054903725
0.0013641909
2.1904555e-06
2.32204e-06
2.7392453e-06
3.8425462e-06
6.5982127e-06
1.2774116e-05
2.436632e-05
4.2391323e-05
6.6959523e-05
9.8768019e-05
0.00014097539
0.00020254993
0.00030883712
0.00054942734
0.0013653934
2.1736491e-06
2.3235241e-06
2.7963109e-06
4.0352183e-06
7.0765796e-06
1.370254e-05
2.5741357e-05
4.398702e-05
6.8502524e-05
0.00010007635
0.0001419789
0.00020325984
0.00030931202
0.0005498234
0.0013666164
2.1626844e-06
2.3332282e-06
2.8683445e-06
4.2565877e-06
7.6007593e-06
1.4675575e-05
2.7127207e-05
4.5552949e-05
6.9993982e-05
0.00010133172
0.00014293979
0.00020394108
0.0003097737
0.00055022517
0.001367859
2.158087e-06
2.3519559e-06
2.9568139e-06
4.5087505e-06
8.1713302e-06
1.5689386e-05
2.8518525e-05
4.7086834e-05
7.1434897e-05
0.00010253684
0.00014386157
0.00020459275
0.000310224
0.00055063279
0.0013691204
2.1604699e-06
2.3806209e-06
3.0633136e-06
4.7937524e-06
8.7883495e-06
1.6739762e-05
2.9910353e-05
4.8586858e-05
7.2826357e-05
0.00010369382
0.00014474502
0.00020521726
0.00031066402
0.00055104637
0.0013703998
2.1705425e-06
2.4202549e-06
3.1895554e-06
5.1135289e-06
9.4513215e-06
1.7822224e-05
3.1298154e-05
5.0051599e-05
7.416948e-05
0.00010480453
0.00014559147
0.00020581671
0.00031109449
0.00055146581
0.0013716964
2.1891212e-06
2.472015e-06
3.3373545e-06
5.4698403e-06
1.0159186e-05
1.8932133e-05
3.2677818e-05
5.1479973e-05
7.5465397e-05
0.0001058707
0.00014640251
0.00020639288
0.00031151598
0.00055189089
0.0013730095
2.2171394e-06
2.5371893e-06
3.5086064e-06
5.8642047e-06
1.091033e-05
2.0064793e-05
3.4045679e-05
5.287128e-05
7.6715686e-05
0.00010689531
0.0001471778
0.00020694762
0.00031192923
0.00055232137
0.0013743381
2.255658e-06
2.6172e-06
3.7052575e-06
6.2978309e-06
1.1702616e-05
2.1215543e-05
3.5398491e-05
5.4225044e-05
7.7921524e-05
0.00010787902
0.00014791972
0.00020748226
0.00031233486
0.00055275703
0.0013756814
2.3058756e-06
2.7136032e-06
3.9292659e-06
6.7715577e-06
1.2533434e-05
2.2379829e-05
3.6733397e-05
5.5540959e-05
7.9083963e-05
0.00010882301
0.00014863032
0.00020799792
0.00031273334
0.00055319761
0.0013770387
2.3691363e-06
2.8280835e-06
4.1825542e-06
7.2858007e-06
1.3399764e-05
2.3553273e-05
3.8047919e-05
5.6818973e-05
8.0204415e-05
0.00010972814
0.00014931143
0.00020849562
0.00031312505
0.00055364283
0.0013784091
2.4469371e-06
2.9624436e-06
4.4669554e-06
7.8405131e-06
1.4298251e-05
2.4731723e-05
3.9339957e-05
5.8059304e-05
8.1284458e-05
0.00011059498
0.00014996475
0.00020897637
0.00031351032
0.00055409239
0.0013797918
2.5409303e-06
3.118585e-06
4.7841517e-06
8.4351604e-06
1.5225285e-05
2.5911276e-05
4.0607689e-05
5.9262023e-05
8.2324496e-05
0.00011142553
0.00015059168
0.00020944106
0.00031388944
0.00055454596
0.001381186
2.6529216e-06
3.2984817e-06
5.1356112e-06
9.0687144e-06
1.6177077e-05
2.7088294e-05
4.1849526e-05
6.0427218e-05
8.3325316e-05
0.00011222156
0.00015119345
0.00020989047
0.00031426264
0.00055500322
0.0013825908
2.7848621e-06
3.5041435e-06
5.5225242e-06
9.7396633e-06
1.7149746e-05
2.8259463e-05
4.3064378e-05
6.1556065e-05
8.4286607e-05
0.00011298473
0.00015177128
0.00021032529
0.00031463011
0.00055546385
0.0013840056
2.9388305e-06
3.7375704e-06
5.9457428e-06
1.0446039e-05
1.8139382e-05
2.9421734e-05
4.4251125e-05
6.2648237e-05
8.5209847e-05
0.00011371646
0.00015232628
0.00021074615
0.000314992
0.00055592749
0.0013854294
3.117006e-06
4.0006973e-06
6.4057284e-06
1.1185459e-05
1.9142097e-05
3.0572293e-05
4.5408718e-05
6.3703719e-05
8.6096477e-05
0.00011441804
0.00015285944
0.0002111536
0.00031534843
0.00055639382
0.0013868615
3.3216281e-06
4.2953317e-06
6.9025111e-06
1.1955183e-05
2.0154119e-05
3.1708773e-05
4.6537124e-05
6.4721751e-05
8.6947825e-05
0.00011509068
0.00015337166
0.00021154816
0.00031569948
0.00055686247
0.0013883011
3.5549438e-06
4.6230854e-06
7.4356622e-06
1.275217e-05
2.1171782e-05
3.2828878e-05
4.7635195e-05
6.5703006e-05
8.7765074e-05
0.00011573553
0.00015386377
0.00021193025
0.00031604521
0.0005573331
0.0013897475
3.8191413e-06
4.985304e-06
8.0042829e-06
1.3573145e-05
2.2191565e-05
3.3930543e-05
4.8701854e-05
6.6648317e-05
8.8549317e-05
0.00011635363
0.00015433653
0.00021230028
0.00031638564
0.00055780535
0.0013911997
4.1162713e-06
5.3829996e-06
8.6070139e-06
1.4414685e-05
2.3210249e-05
3.5012485e-05
4.9735673e-05
6.7558448e-05
8.9301608e-05
0.00011694594
0.0001547906
0.00021265859
0.00031672079
0.00055827886
0.0013926572
4.4481599e-06
5.8167883e-06
9.2420529e-06
1.5273243e-05
2.4224609e-05
3.6072399e-05
5.0736618e-05
6.8434107e-05
9.0022926e-05
0.00011751334
0.00015522662
0.00021300546
0.00031705063
0.00055875328
0.0013941191
4.8163166e-06
6.2868411e-06
9.9072086e-06
1.6145318e-05
2.5232146e-05
3.7107796e-05
5.1704664e-05
6.9275982e-05
9.0714184e-05
0.00011805664
0.00015564513
0.00021334117
0.00031737512
0.00055922823
0.0013955847
5.2218438e-06
6.7928451e-06
1.0599929e-05
1.702733e-05
2.6229785e-05
3.811714e-05
5.2639808e-05
7.008474e-05
9.1376227e-05
0.00011857657
0.00015604663
0.00021366593
0.0003176942
0.00055970334
0.0013970532
5.6653576e-06
7.333997e-06
1.1317439e-05
1.7916157e-05
2.7214014e-05
3.9099321e-05
5.3542087e-05
7.0861013e-05
9.2009838e-05
0.00011907383
0.00015643156
0.00021397991
0.00031800778
0.00056017824
0.0013985238
6.1469232e-06
7.9090023e-06
1.2056748e-05
1.8808046e-05
2.8182128e-05
4.0053345e-05
5.4411573e-05
7.1605398e-05
9.2615738e-05
0.000119549
0.00015680032
0.00021428326
0.00031831575
0.00056065253
0.0013999958
6.6660258e-06
8.5161441e-06
1.2814871e-05
1.969897e-05
2.9131838e-05
4.0978338e-05
5.5248362e-05
7.2318457e-05
9.3194583e-05
0.00012000264
0.00015715325
0.00021457608
0.00031861799
0.00056112583
0.0014014685
7.221635e-06
9.1533927e-06
1.3587936e-05
2.0585551e-05
3.0061058e-05
4.1873535e-05
5.6052565e-05
7.300071e-05
9.3746974e-05
0.00012043523
0.00015749063
0.00021485844
0.00031891434
0.00056159772
0.0014029409
7.8120189e-06
9.8178825e-06
1.4372276e-05
2.1464607e-05
3.0967899e-05
4.273827e-05
5.6824303e-05
7.3652637e-05
9.427345e-05
0.00012084721
0.00015781271
0.0002151304
0.00031920464
0.00056206779
0.0014044125
8.4347225e-06
1.0506408e-05
1.5164241e-05
2.2333172e-05
3.1850659e-05
4.3571965e-05
5.7563704e-05
7.427468e-05
9.4774497e-05
0.00012123895
0.0001581197
0.00021539194
0.00031948869
0.00056253561
0.0014058822
9.0867252e-06
1.1215471e-05
1.5960247e-05
2.3188505e-05
3.2707821e-05
4.4374125e-05
5.8270898e-05
7.486724e-05
9.5250544e-05
0.00012161078
0.00015841175
0.00021564306
0.00031976629
0.00056300074
0.0014073494
9.7645306e-06
1.194136e-05
1.6756822e-05
2.4028096e-05
3.3538047e-05
4.5144336e-05
5.894602e-05
7.543068e-05
9.5701972e-05
0.00012196297
0.00015868898
0.00021588368
0.00032003719
0.00056346272
0.0014088132
1.0464272e-05
1.2680235e-05
1.7550643e-05
2.4849675e-05
3.4340167e-05
4.5882257e-05
5.9589207e-05
7.5965331e-05
9.6129112e-05
0.00012229575
0.00015895147
0.00021611373
0.00032030113
0.00056392106
0.0014102726
1.1181823e-05
1.3428204e-05
1.8338568e-05
2.5651206e-05
3.5113185e-05
4.6587622e-05
6.0200603e-05
7.6471488e-05
9.6532249e-05
0.00012260931
0.00015919926
0.00021633309
0.00032055785
0.00056437527
0.0014117267
1.1912914e-05
1.4181401e-05
1.9117659e-05
2.6430889e-05
3.5856266e-05
4.7260242e-05
6.0780359e-05
7.6949423e-05
9.6911629e-05
0.00012290378
0.00015943235
0.00021654161
0.00032080702
0.00056482484
0.0014131746
1.2653236e-05
1.4936054e-05
1.9885198e-05
2.7187156e-05
3.6568737e-05
4.7900003e-05
6.1328641e-05
7.7399385e-05
9.7267462e-05
0.00012317927
0.00015965071
0.00021673912
0.00032104834
0.00056526923
0.0014146152
1.3398542e-05
1.568854e-05
2.06387e-05
2.7918665e-05
3.7250079e-05
4.8506869e-05
6.1845634e-05
7.7821606e-05
9.7599926e-05
0.00012343585
0.00015985429
0.00021692544
0.00032128146
0.00056570788
0.0014160475
1.4144727e-05
1.6435436e-05
2.1375922e-05
2.8624289e-05
3.7899926e-05
4.9080881e-05
6.2331545e-05
7.821631e-05
9.7909175e-05
0.00012367357
0.00016004299
0.00021710033
0.00032150601
0.00056614023
0.0014174704
1.4887904e-05
1.7173556e-05
2.2094864e-05
2.9303109e-05
3.8518056e-05
4.9622162e-05
6.2786612e-05
7.8583717e-05
9.8195344e-05
0.00012389243
0.00016021672
0.00021726356
0.00032172163
0.00056656569
0.0014188826
1.5624448e-05
1.7899984e-05
2.279377e-05
2.9954402e-05
3.9104384e-05
5.0130915e-05
6.3211105e-05
7.8924051e-05
9.8458555e-05
0.00012409245
0.00016037533
0.00021741488
0.00032192791
0.00056698365
0.001420283
1.6351044e-05
1.8612083e-05
2.3471121e-05
3.0577631e-05
3.9658956e-05
5.0607423e-05
6.3605336e-05
7.9237549e-05
9.8698927e-05
0.0001242736
0.00016051869
0.00021755402
0.00032212446
0.00056739349
0.0014216702
1.7064705e-05
1.9307515e-05
2.4125632e-05
3.1172427e-05
4.018194e-05
5.1052048e-05
6.3969659e-05
7.9524462e-05
9.8916578e-05
0.00012443587
0.00016064665
0.0002176807
0.00032231086
0.00056779459
0.0014230431
1.7762785e-05
1.9984236e-05
2.475624e-05
3.1738583e-05
4.0673616e-05
5.1465227e-05
6.4304474e-05
7.9785067e-05
9.9111634e-05
0.00012457924
0.00016075905
0.00021779465
0.0003224867
0.00056818632
0.0014244001
1.8442984e-05
2.0640496e-05
2.5362094e-05
3.2276034e-05
4.1134366e-05
5.1847474e-05
6.461023e-05
8.0019669e-05
9.9284237e-05
0.0001247037
0.00016085574
0.00021789557
0.00032265156
0.00056856805
0.0014257399
1.9103338e-05
2.1274829e-05
2.5942541e-05
3.278485e-05
4.1564668e-05
5.2199367e-05
6.4887425e-05
8.0228604e-05
9.9434547e-05
0.00012480923
0.00016093658
0.00021798321
0.00032280504
0.00056893914
0.0014270612
1.9742205e-05
2.1886035e-05
2.6497116e-05
3.3265218e-05
4.1965081e-05
5.2521553e-05
6.5136608e-05
8.0412248e-05
9.9562753e-05
0.00012489586
0.00016100142
0.00021805728
0.00032294674
0.00056929898
0.0014283623
2.0358252e-05
2.2473172e-05
2.7025524e-05
3.3717434e-05
4.2336237e-05
5.2814734e-05
6.5358375e-05
8.0571013e-05
9.9669071e-05
0.00012496362
0.00016105015
0.00021811755
0.00032307627
0.00056964695
0.001429642
2.0950426e-05
2.3035528e-05
2.7527626e-05
3.4141886e-05
4.2678831e-05
5.3079664e-05
6.555337e-05
8.0705355e-05
9.9753754e-05
0.00012501259
0.00016108269
0.00021816379
0.00032319328
0.00056998246
0.0014308986
2.151794e-05
2.3572608e-05
2.8003426e-05
3.4539045e-05
4.2993613e-05
5.3317145e-05
6.5722281e-05
8.081577e-05
9.9817093e-05
0.00012504287
0.00016109898
0.0002181958
0.00032329742
0.00057030495
0.0014321308
2.2060239e-05
2.4084112e-05
2.8453054e-05
3.4909456e-05
4.3281377e-05
5.3528015e-05
6.5865835e-05
8.0902795e-05
9.9859416e-05
0.00012505458
0.00016109899
0.00021821342
0.00032338839
0.00057061386
0.0014333371
2.2576982e-05
2.4569913e-05
2.8876753e-05
3.5253722e-05
4.3542954e-05
5.3713147e-05
6.5984797e-05
8.0967008e-05
9.9881096e-05
0.00012504792
0.00016108274
0.00021821653
0.00032346592
0.00057090871
0.0014345161
2.3068018e-05
2.5030039e-05
2.9274867e-05
3.5572501e-05
4.3779202e-05
5.387344e-05
6.6079966e-05
8.1009028e-05
9.9882546e-05
0.00012502311
0.00016105028
0.00021820503
0.00032352979
0.000571189
0.0014356663
2.3533359e-05
2.5464653e-05
2.9647824e-05
3.5866494e-05
4.3991002e-05
5.400981e-05
6.6152165e-05
8.1029506e-05
9.9864223e-05
0.00012498041
0.00016100172
0.00021817889
0.00032357982
0.00057145433
0.0014367864
2.3973162e-05
2.5874036e-05
2.9996125e-05
3.6136434e-05
4.4179251e-05
5.4123189e-05
6.6202242e-05
8.1029132e-05
9.9826624e-05
0.00012492014
0.00016093721
0.00021813813
0.00032361586
0.00057170432
0.0014378751
2.4387709e-05
2.625857e-05
3.0320337e-05
3.6383085e-05
4.4344853e-05
5.421452e-05
6.6231066e-05
8.1008621e-05
9.9770288e-05
0.00012484266
0.00016085696
0.0002180828
0.00032363785
0.00057193864
0.0014389312
2.4777387e-05
2.6618723e-05
3.0621077e-05
3.660723e-05
4.4488716e-05
5.4284747e-05
6.6239517e-05
8.0968721e-05
9.9695789e-05
0.00012474837
0.00016076121
0.00021801303
0.00032364578
0.00057215703
0.0014399534
2.514267e-05
2.6955034e-05
3.0899003e-05
3.6809668e-05
4.4611751e-05
5.4334814e-05
6.6228485e-05
8.0910198e-05
9.9603741e-05
0.00012463772
0.00016065027
0.000217929
0.00032363967
0.00057235929
0.0014409407
2.5484107e-05
2.7268102e-05
3.1154811e-05
3.6991206e-05
4.4714861e-05
5.4365661e-05
6.6198869e-05
8.0833841e-05
9.9494789e-05
0.00012451122
0.0001605245
0.00021783093
0.00032361964
0.00057254528
0.0014418919
2.5802309e-05
2.7558575e-05
3.1389221e-05
3.7152658e-05
4.4798942e-05
5.4378221e-05
6.6151565e-05
8.0740456e-05
9.9369607e-05
0.0001243694
0.00016038432
0.00021771913
0.00032358584
0.00057271493
0.0014428062
2.6097932e-05
2.7827136e-05
3.1602971e-05
3.7294839e-05
4.4864882e-05
5.4373414e-05
6.6087472e-05
8.0630859e-05
9.9228898e-05
0.00012421284
0.00016023018
0.00021759395
0.00032353852
0.00057286824
0.0014436827
2.6371672e-05
2.8074498e-05
3.1796817e-05
3.7418558e-05
4.4913552e-05
5.4352148e-05
6.6007482e-05
8.0505875e-05
9.9073388e-05
0.00012404215
0.00016006258
0.00021745578
0.00032347795
0.00057300529
0.0014445206
2.6624252e-05
2.8301398e-05
3.1971518e-05
3.7524622e-05
4.494581e-05
5.4315315e-05
6.5912479e-05
8.0366338e-05
9.8903822e-05
0.00012385797
0.00015988207
0.00021730508
0.0003234045
0.00057312621
0.0014453195
2.6856416e-05
2.8508583e-05
3.2127839e-05
3.7613828e-05
4.4962498e-05
5.4263791e-05
6.5803339e-05
8.021308e-05
9.8720963e-05
0.00012366098
0.00015968924
0.00021714237
0.00032331857
0.00057323123
0.0014460787
2.706892e-05
2.8696811e-05
3.2266545e-05
3.768696e-05
4.4964437e-05
5.419843e-05
6.5680923e-05
8.0046934e-05
9.8525584e-05
0.00012345189
0.00015948473
0.0002169682
0.00032322063
0.00057332061
0.0014467978
2.726253e-05
2.8866844e-05
3.2388395e-05
3.7744792e-05
4.4952432e-05
5.4120068e-05
6.5546079e-05
7.986873e-05
9.831847e-05
0.00012323142
0.00015926918
0.00021678316
0.00032311119
0.00057339473
0.0014474768
2.7438011e-05
2.9019441e-05
3.2494143e-05
3.7788083e-05
4.4927265e-05
5.402952e-05
6.5399639e-05
7.9679291e-05
9.810041e-05
0.0001230003
0.00015904329
0.00021658789
0.00032299083
0.00057345397
0.0014481154
2.7596128e-05
2.9155356e-05
3.258453e-05
3.7817576e-05
4.4889699e-05
5.3927577e-05
6.5242415e-05
7.9479429e-05
9.7872196e-05
0.0001227593
0.00015880777
0.00021638305
0.00032286014
0.00057349882
0.0014487137
2.7737639e-05
2.9275338e-05
3.2660289e-05
3.7833996e-05
4.4840475e-05
5.381501e-05
6.5075204e-05
7.9269948e-05
9.7634617e-05
0.00012250917
0.00015856335
0.00021616934
0.00032271976
0.00057352979
0.0014492719
2.7863292e-05
2.9380122e-05
3.2722137e-05