/*--------------------------------*- C++ -*----------------------------------*\
| =========                 |                                                 |
| \\      /  F ield         | OpenFOAM: The Open Source CFD Toolbox           |
|  \\    /   O peration     | Version:  2506                                  |
|   \\  /    A nd           | Website:  www.openfoam.com                      |
|    \\/     M anipulation  |                                                 |
\*---------------------------------------------------------------------------*/
FoamFile
{
    version     2.0;
    format      ascii;
    arch        "LSB;label=32;scalar=64";
    class       volScalarField;
    location    "5000/water";
    object      k;
}
// * * * * * * * * * * * * * * * * * * * * * * * * * * * * * * * * * * * * * //

dimensions      [0 2 -2 0 0 0 0];

internalField   nonuniform List<scalar> 
6000
(
0.0002144485
0.00021444827
0.00021444833
0.00021444852
0.00021444878
0.00021444911
0.00021444953
0.00021445001
0.00021445038
0.00021444961
0.00021444477
0.00021444847
0.00021482328
0.00022098609
0.00033298785
0.00019735372
0.00019735408
0.00019735481
0.00019735601
0.00019735759
0.00019735962
0.00019736212
0.0001973649
0.00019736678
0.00019736231
0.00019733424
0.0001972933
0.00019808165
0.00021190706
0.00042108833
0.00018260526
0.00018260625
0.00018260756
0.00018260957
0.0001826122
0.00018261554
0.00018261945
0.00018262311
0.00018262253
0.00018260174
0.00018251429
0.00018235696
0.00018354965
0.00020571076
0.0004915993
0.00016977104
0.00016977195
0.00016977358
0.00016977617
0.00016977959
0.00016978384
0.00016978847
0.00016979119
0.00016978242
0.00016972799
0.0001695392
0.00016920344
0.00017083025
0.00020141509
0.00054314021
0.00015851703
0.00015851791
0.00015851979
0.00015852287
0.0001585269
0.00015853173
0.00015853623
0.00015853548
0.0001585108
0.00015840225
0.00015807228
0.00015752308
0.00015966967
0.00019844232
0.00057747636
0.00014858047
0.00014858142
0.00014858351
0.00014858695
0.00014859139
0.00014859636
0.00014859955
0.0001485919
0.00014854197
0.00014835849
0.00014785779
0.00014709963
0.00014993181
0.00019659445
0.00059772639
0.00013975169
0.00013975271
0.00013975496
0.00013975864
0.00013976325
0.00013976781
0.00013976817
0.00013974945
0.00013966425
0.0001393877
0.00013870223
0.00013778194
0.00014154644
0.00019585229
0.00060724748
0.00013186192
0.00013186298
0.00013186534
0.00013186914
0.00013187366
0.00013187713
0.00013187282
0.00013183836
0.00013170812
0.00013132527
0.00013045854
0.00012946164
0.00013447268
0.00019626303
0.00060905754
0.00012477404
0.00012477514
0.00012477755
0.00012478136
0.00012478548
0.00012478703
0.00012477592
0.00012472085
0.00012453699
0.00012404097
0.00012301362
0.00012205827
0.00012868159
0.00019789321
0.0006056161
0.00011837572
0.00011837682
0.00011837924
0.0001183829
0.00011838626
0.00011838492
0.00011836468
0.00011828424
0.00011804014
0.00011743108
0.00011627928
0.00011550993
0.00012414935
0.00020080676
0.00059880682
0.0001125741
0.0001125752
0.00011257756
0.00011258091
0.00011258305
0.00011257774
0.00011254594
0.00011243584
0.00011212738
0.0001114124
0.00011018555
0.00010976786
0.00012085593
0.00020505367
0.00059001308
0.00010729189
0.00010729297
0.0001072952
0.00010729803
0.00010729845
0.00010728799
0.00010724223
0.00010709893
0.00010672477
0.00010591759
0.00010467621
0.00010479348
0.00011878602
0.00021066301
0.00058022149
0.0001024643
0.00010246533
0.00010246733
0.00010246942
0.00010246756
0.00010245071
0.00010238875
0.00010220964
0.0001017714
0.00010089174
9.9705638e-05
0.000100557
0.00011793046
0.00021763683
0.00057012062
9.8036637e-05
9.8037572e-05
9.8039255e-05
9.8040328e-05
9.8035582e-05
9.8011091e-05
9.7930966e-05
9.7714594e-05
9.7216801e-05
9.6289669e-05
9.5236719e-05
9.703687e-05
0.00011828673
0.00022594366
0.0005601824
9.3962451e-05
9.3963259e-05
9.3964497e-05
9.3964262e-05
9.3955981e-05
9.3922652e-05
9.3822751e-05
9.3568903e-05
9.3018884e-05
9.2074025e-05
9.1239503e-05
9.4219615e-05
0.00011985802
0.00023551194
0.0005507241
9.0202076e-05
9.020271e-05
9.0203366e-05
9.0201504e-05
9.0189027e-05
9.0145749e-05
9.0024925e-05
8.9734681e-05
8.9142411e-05
8.8213812e-05
8.7690325e-05
9.20998e-05
0.00012265037
0.00024622465
0.00054195294
8.6721448e-05
8.6721856e-05
8.6721776e-05
8.6717945e-05
8.6700619e-05
8.664642e-05
8.6504047e-05
8.61798e-05
8.5557736e-05
8.4683334e-05
8.4571272e-05
9.0679902e-05
0.00012666793
0.00025791693
0.00053399692
8.3491166e-05
8.3491287e-05
8.3490304e-05
8.3484151e-05
8.3461349e-05
8.3395437e-05
8.3231463e-05
8.2876915e-05
8.2239851e-05
8.1461425e-05
8.1869885e-05
8.9969913e-05
0.00013190642
0.00027037857
0.00052692519
8.0485733e-05
8.0485502e-05
8.0483437e-05
8.0474603e-05
8.0445747e-05
8.0367548e-05
8.018253e-05
7.9802669e-05
7.9167636e-05
7.8530889e-05
7.9578989e-05
8.9986538e-05
0.00013834557
0.00028336255
0.00052076146
7.7682937e-05
7.7682283e-05
7.767895e-05
7.7667083e-05
7.7631664e-05
7.7540855e-05
7.7335982e-05
7.6937064e-05
7.6323276e-05
7.5878109e-05
7.7696612e-05
9.0751816e-05
0.00014594134
0.00029659939
0.00051549302
7.5063349e-05
7.5062196e-05
7.5057404e-05
7.5042167e-05
7.4999765e-05
7.4896302e-05
7.4673418e-05
7.4262946e-05
7.369182e-05
7.3492783e-05
7.6225917e-05
9.229105e-05
0.00015461944
0.000309816
0.00051107779
7.2609902e-05
7.2608172e-05
7.260173e-05
7.2582813e-05
7.2533118e-05
7.2417256e-05
7.2178869e-05
7.1765596e-05
7.1260831e-05
7.1367745e-05
7.5175079e-05
9.4629939e-05
0.00016427135
0.00032275576
0.00050745065
7.0307551e-05
7.0305165e-05
7.0296888e-05
7.0274015e-05
7.0216842e-05
7.0089161e-05
6.9838457e-05
6.94324e-05
6.9020131e-05
6.949887e-05
7.4557053e-05
9.7790947e-05
0.00017475428
0.00033519669
0.00050453
6.8142984e-05
6.8139863e-05
6.8129575e-05
6.8102519e-05
6.8037823e-05
6.7899244e-05
6.7640104e-05
6.7252585e-05
6.6961603e-05
6.7885016e-05
7.438916e-05
0.00010178904
0.0001858954
0.00034696444
0.00050222457
6.6104382e-05
6.6100451e-05
6.608799e-05
6.6056581e-05
6.5984475e-05
6.5836276e-05
6.5573296e-05
6.5217006e-05
6.5079053e-05
6.6528011e-05
7.4692423e-05
0.00010662718
0.00019750038
0.00035793856
0.00050043991
6.418122e-05
6.4176406e-05
6.4161633e-05
6.4125766e-05
6.4046535e-05
6.3890369e-05
6.3628889e-05
6.3317981e-05
6.3368113e-05
6.5432644e-05
7.5490606e-05
0.00011229203
0.00020936499
0.00036805173
0.00049908424
6.2364094e-05
6.2358333e-05
6.2341135e-05
6.230078e-05
6.2214894e-05
6.2052808e-05
6.1798947e-05
6.1549161e-05
6.182618e-05
6.4606648e-05
7.680889e-05
0.00011875054
0.00022128816
0.00037728353
0.00049807291
6.064458e-05
6.0637817e-05
6.0618111e-05
6.0573325e-05
6.0481451e-05
6.031591e-05
6.0076617e-05
5.9905429e-05
6.045239e-05
6.4060643e-05
7.8672186e-05
0.00012594803
0.00023308444
0.00038565069
0.00049733132
5.9015114e-05
5.9007302e-05
5.8985044e-05
5.8935977e-05
5.8838997e-05
5.8672904e-05
5.8456016e-05
5.8382826e-05
5.9247607e-05
6.380802e-05
8.1103078e-05
0.00013380822
0.00024459408
0.00039319634
0.00049679626
5.746888e-05
5.745999e-05
5.7435175e-05
5.7382083e-05
5.7281105e-05
5.7117831e-05
5.6932149e-05
5.6978499e-05
5.8214438e-05
6.3864707e-05
8.4119511e-05
0.00014223536
0.00025568959
0.00039997992
0.00049641598
5.599973e-05
5.5989745e-05
5.596242e-05
5.590567e-05
5.5802046e-05
5.5645466e-05
5.5500841e-05
5.5690668e-05
5.7357258e-05
6.424881e-05
8.773233e-05
0.0001511185
0.00026627829
0.00040606902
0.00049614946
5.4602101e-05
5.4591025e-05
5.4561286e-05
5.4501369e-05
5.4396714e-05
5.4251246e-05
5.4158685e-05
5.4518612e-05
5.6682234e-05
6.4980079e-05
9.1942941e-05
0.00016033718
0.00027630116
0.00041153335
0.00049596497
5.3270953e-05
5.3258808e-05
5.3226813e-05
5.3164353e-05
5.3060564e-05
5.2931212e-05
5.2903001e-05
5.3462663e-05
5.6197343e-05
6.6079181e-05
9.6741327e-05
0.00016976802
0.00028572901
0.00041644086
0.00049583865
5.2001708e-05
5.198854e-05
5.1954511e-05
5.1890276e-05
5.1789556e-05
5.1681971e-05
5.1731808e-05
5.2524225e-05
5.5912363e-05
6.7566766e-05
0.00010210472
0.00017929137
0.00029455685
0.00042085544
0.00049575298
5.0790203e-05
5.0776083e-05
5.0740313e-05
5.067523e-05
5.0580113e-05
5.050065e-05
5.0643813e-05
5.1705789e-05
5.5838828e-05
6.946233e-05
0.00010799714
0.00018879709
0.0003027979
0.00042483586
0.00049569544
4.9632648e-05
4.9617675e-05
4.9580534e-05
4.9515698e-05
4.942908e-05
4.9384875e-05
4.9638394e-05
5.1010966e-05
5.5989918e-05
7.1782921e-05
0.00011437
0.00019818901
0.00031047772
0.00042843533
0.0004956574
4.8525586e-05
4.8509888e-05
4.8471831e-05
4.8408525e-05
4.8333699e-05
4.8332748e-05
4.8715611e-05
5.0444524e-05
5.6380276e-05
7.4541727e-05
0.00012116371
0.00020738765
0.00031762942
0.0004317015
0.00049563313
4.7465859e-05
4.74496e-05
4.7411173e-05
4.7350883e-05
4.7291577e-05
4.7342831e-05
4.7876207e-05
5.0012417e-05
5.7025721e-05
7.7746679e-05
0.00012831013
0.00021633122
0.00032428982
0.00043467667
0.00049561908
4.6450583e-05
4.6433963e-05
4.6395814e-05
4.6340247e-05
4.6300671e-05
4.641414e-05
4.7121628e-05
4.9721817e-05
5.7942848e-05
8.1399167e-05
0.00013573578
0.0002249751
0.00033049682
0.00043739817
0.00049561324
4.5477121e-05
4.5460379e-05
4.5423267e-05
4.5374375e-05
4.5359268e-05
4.5546142e-05
4.6454049e-05
4.9581125e-05
5.9148509e-05
8.5493019e-05
0.00014336522
0.00023329015
0.00033628765
0.00043989867
0.00049561471
4.4543061e-05
4.4526479e-05
4.4491284e-05
4.4451289e-05
4.446598e-05
4.4738756e-05
4.5876394e-05
4.9599966e-05
6.0659159e-05
9.0013883e-05
0.00015112441
0.00024126036
0.0003416978
0.00044220662
0.00049562332
4.3646195e-05
4.3630105e-05
4.359784e-05
4.3569259e-05
4.3619731e-05
4.3992365e-05
4.5392377e-05
4.9789137e-05
6.24901e-05
9.4939091e-05
0.0001589437
0.00024888021
0.00034676053
0.00044434668
0.00049563933
4.2784505e-05
4.2769292e-05
4.2741115e-05
4.2726796e-05
4.2819756e-05
4.3307822e-05
4.500653e-05
5.0160522e-05
6.4654626e-05
0.00010023808
0.00016676014
0.00025615208
0.00035150661
0.00044634014
0.00049566327
4.1956147e-05
4.1942252e-05
4.1919486e-05
4.1922641e-05
4.2065604e-05
4.2686474e-05
4.4724243e-05
5.0726937e-05
6.7163136e-05
0.00010587334
0.00017451901
0.00026308403
0.00035596427
0.00044820531
0.00049569579
4.1159436e-05
4.1147367e-05
4.1131511e-05
4.1155759e-05
4.1357137e-05
4.2130176e-05
4.4551789e-05
5.1501907e-05
7.0022256e-05
0.0001118018
0.00018217461
0.0002696879
0.00036015925
0.00044995791
0.00049573755
4.039284e-05
4.0383173e-05
4.0375928e-05
4.0425336e-05
4.0694537e-05
4.1641323e-05
4.4496352e-05
5.2499369e-05
7.3234063e-05
0.00011797661
0.00018969027
0.00027597786
0.0003641149
0.00045161146
0.00049578915
3.9654963e-05
3.9648355e-05
3.9651641e-05
3.9730781e-05
4.0078323e-05
4.1222872e-05
4.4566031e-05
5.3733284e-05
7.6795467e-05
0.00012434897
0.00019703788
0.00028196939
0.00036785236
0.00045317754
0.00049585112
3.8944544e-05
3.8941738e-05
3.8957721e-05
3.9071722e-05
3.9509355e-05
4.0878378e-05
4.476983e-05
5.5217171e-05
8.069784e-05
0.00013087002
0.00020419699
0.00028767848
0.00037139066
0.00045466608
0.00049592389
3.8260447e-05
3.8262283e-05
3.8293404e-05
3.8448018e-05
3.8988856e-05
4.0612024e-05
4.5117613e-05
5.6963568e-05
8.4926929e-05
0.00013749256
0.00021115369
0.00029312118
0.00037474694
0.00045608564
0.00049600778
3.7601653e-05
3.7609082e-05
3.7658086e-05
3.7859757e-05
3.851843e-05
4.0428652e-05
4.5620029e-05
5.8983444e-05
8.9463092e-05
0.00014417246
0.0002178995
0.00029831319
0.0003779366
0.00045744356
0.00049610301
3.6967262e-05
3.6981351e-05
3.7051327e-05
3.7307273e-05
3.8100083e-05
4.0333799e-05
4.628838e-05
6.1285582e-05
9.4281845e-05
0.00015086965
0.00022443029
0.00030326971
0.00038097346
0.00045874619
0.00049620968
3.6356483e-05
3.6378439e-05
3.6472854e-05
3.6791149e-05
3.7736252e-05
4.0333719e-05
4.7134449e-05
6.3875988e-05
9.9354667e-05
0.00015754881
0.00023074527
0.00030800524
0.00038386991
0.00045999903
0.00049632782
3.5768637e-05
3.5799814e-05
3.5922562e-05
3.6312237e-05
3.7429828e-05
4.0435397e-05
4.8170259e-05
6.6757355e-05
0.00010465002
0.00016417962
0.00023684619
0.00031253356
0.0003866371
0.00046120682
0.00049645738
3.5203153e-05
3.5245078e-05
3.5400526e-05
3.587167e-05
3.7184185e-05
4.064656e-05
4.9407776e-05
6.9928646e-05
0.00011013448
0.00017073673
0.00024273672
0.0003168676
0.00038928503
0.00046237371
0.00049659824
3.4659571e-05
3.4713957e-05
3.4907005e-05
3.5470884e-05
3.7003216e-05
4.0975654e-05
5.0858553e-05
7.3384823e-05
0.00011577387
0.0001771995
0.00024842185
0.00032101951
0.00039182273
0.00046350331
0.00049675024
3.4137541e-05
3.4206315e-05
3.4442453e-05
3.5111632e-05
3.6891359e-05
4.1431807e-05
5.2533324e-05
7.7116764e-05
0.00012153432
0.00018355156
0.00025390756
0.00032500062
0.0003942583
0.00046459877
0.00049691314
3.3636827e-05
3.3722154e-05
3.4007531e-05
3.4796016e-05
3.6853631e-05
4.2024758e-05
5.4441565e-05
8.1111387e-05
0.00012738327
0.0001897803
0.00025920045
0.00032882148
0.00039659907
0.00046566288
0.00049708671
3.3157312e-05
3.3261621e-05
3.3603121e-05
3.4526502e-05
3.689565e-05
4.2764744e-05
5.6591036e-05
8.5351968e-05
0.00013329012
0.00019587637
0.0002643075
0.00033249188
0.00039885166
0.00046669809
0.00049727064
3.2699001e-05
3.2825019e-05
3.3230344e-05
3.4305957e-05
3.7023661e-05
4.3662352e-05
5.8987342e-05
8.9818641e-05
0.00013922683
0.00020183314
0.00026923591
0.00033602092
0.00040102205
0.00046770657
0.00049746465
3.2262029e-05
3.2412818e-05
3.2890574e-05
3.4137671e-05
3.7244542e-05
4.4728316e-05
6.1633539e-05
9.448903e-05
0.00014516825
0.00020764625
0.00027399294
0.00033941699
0.00040311568
0.00046869022
0.00049766841
3.1846672e-05
3.2025663e-05
3.2585463e-05
3.4025389e-05
3.756581e-05
4.5973272e-05
6.4529811e-05
9.933898e-05
0.00015109219
0.00021331317
0.00027858579
0.00034268791
0.00040513748
0.00046965076
0.00049788159
3.1453353e-05
3.1664391e-05
3.2316961e-05
3.3973345e-05
3.7995595e-05
4.7407472e-05
6.7673265e-05
0.0001043433
0.00015697949
0.0002188329
0.00028302152
0.00034584086
0.00040709192
0.00047058968
0.00049810386
3.1082656e-05
3.133005e-05
3.2087341e-05
3.3986285e-05
3.8542602e-05
4.9040448e-05
7.1057848e-05
0.00010947653
0.00016281381
0.00022420565
0.00028730704
0.0003488826
0.00040898323
0.00047150443
0.00049833477
3.0735342e-05
3.1023912e-05
3.1899228e-05
3.4069503e-05
3.9216039e-05
5.0880666e-05
7.467441e-05
0.00011471355
0.0001685815
0.00022943258
0.00029144901
0.00035181925
0.00041081466
0.00047239506
0.0004985739
3.0412362e-05
3.0747498e-05
3.1755625e-05
3.4228855e-05
4.0025516e-05
5.2935159e-05
7.8510899e-05
0.00012003018
0.00017427128
0.00023451559
0.00029545377
0.0003546564
0.00041258911
0.00047326294
0.0004988207
3.0114877e-05
3.0502598e-05
3.1659946e-05
3.4470786e-05
4.0980899e-05
5.5209174e-05
8.255269e-05
0.00012540362
0.00017987401
0.00023945715
0.00029932739
0.00035739918
0.00041430937
0.00047410988
0.00049907467
2.9844281e-05
3.0291301e-05
3.1616047e-05
3.4802327e-05
4.2092134e-05
5.770586e-05
8.6783015e-05
0.00013081272
0.0001853824
0.00024426015
0.00030307572
0.00036005265
0.0004159775
0.00047493648
0.0004993353
2.9602222e-05
3.0116018e-05
3.1628256e-05
3.5231093e-05
4.3369024e-05
6.0426012e-05
9.1183465e-05
0.00013623819
0.00019079079
0.00024892784
0.00030670433
0.00036262128
0.000417595
0.00047574363
0.00049960217
2.9390631e-05
2.9979518e-05
3.1701409e-05
3.5765252e-05
4.4820975e-05
6.3367901e-05
9.5734523e-05
0.00014166271
0.00019609491
0.00025346365
0.00031021842
0.0003651089
0.00041916378
0.00047653275
0.00049987495
2.9211752e-05
2.9884956e-05
3.1840875e-05
3.641348e-05
4.6456705e-05
6.6527191e-05
0.00010041609
0.0001470709
0.00020129166
0.00025787115
0.00031362282
0.00036751904
0.00042068625
0.00047730512
0.00050015337
2.9068173e-05
2.9835914e-05
3.2052586e-05
3.718488e-05
4.8283939e-05
6.9896979e-05
0.000105208
0.00015244924
0.00020637895
0.00026215395
0.00031692221
0.00036985505
0.00042216444
0.00047806215
0.00050043719
2.8962865e-05
2.9836432e-05
3.2343051e-05
3.8088872e-05
5.0309098e-05
7.3467929e-05
0.00011009041
0.00015778602
0.00021135555
0.00026631587
0.00032012129
0.00037211985
0.00042359915
0.00047880563
0.00050072627
2.8899219e-05
2.9891048e-05
3.2719372e-05
3.9135049e-05
5.2537001e-05
7.722851e-05
0.00011504422
0.00016307117
0.00021622093
0.00027036055
0.00032322394
0.00037431563
0.00042499298
0.00047953648
0.00050102047
2.8881089e-05
3.0004839e-05
3.3189237e-05
4.0332992e-05
5.49706e-05
8.1165314e-05
0.0001200513
0.00016829609
0.00022097512
0.00027429154
0.00032623369
0.00037644514
0.00042634821
0.00048025524
0.00050131961
2.8912839e-05
3.0183455e-05
3.3760898e-05
4.1692055e-05
5.7610767e-05
8.5263431e-05
0.00012509469
0.00017345356
0.00022561856
0.00027811222
0.00032915394
0.00037851125
0.00042766688
0.00048096236
0.00050162345
2.8999386e-05
3.0433151e-05
3.444313e-05
4.322111e-05
6.0456149e-05
8.950685e-05
0.00013015876
0.00017853756
0.00023015228
0.00028182649
0.00033198844
0.00038051457
0.00042895139
0.00048165852
0.00050193179
2.9146248e-05
3.0760822e-05
3.524516e-05
4.4928276e-05
6.3503111e-05
9.387887e-05
0.00013522922
0.00018354315
0.00023457748
0.00028543746
0.00033473928
0.00038245835
0.00043020342
0.00048234437
0.00050224443
2.9359594e-05
3.1174015e-05
3.6176561e-05
4.6820629e-05
6.6745762e-05
9.8362489e-05
0.00014029315
0.00018846631
0.00023889551
0.00028894796
0.00033740912
0.00038434551
0.0004314243
0.00048302038
0.00050256119
2.9646285e-05
3.1680944e-05
3.7247119e-05
4.8903917e-05
7.0176067e-05
0.00010294075
0.00014533895
0.00019330377
0.0002431078
0.00029236073
0.00034000083
0.00038617867
0.00043261524
0.00048368688
0.00050288185
3.0013913e-05
3.2290472e-05
3.8466654e-05
5.1182291e-05
7.3784046e-05
0.00010759704
0.00015035633
0.00019805314
0.00024721655
0.0002956795
0.00034251494
0.00038796052
0.00043377758
0.00048434419
0.00050320621
3.0470835e-05
3.3012085e-05
3.9844806e-05
5.3658074e-05
7.755803e-05
0.00011231533
0.00015533615
0.00020271254
0.00025122334
0.00029890571
0.00034495506
0.00038969317
0.00043491254
0.00048499263
0.00050353406
3.1026186e-05
3.3855829e-05
4.1390791e-05
5.6331583e-05
8.1484966e-05
0.00011708035
0.00016027041
0.00020728048
0.00025512959
0.00030204156
0.00034732432
0.00039137848
0.00043602114
0.00048563245
0.0005038652
3.1689879e-05
3.4832212e-05
4.3113122e-05
5.9201018e-05
8.5550747e-05
0.00012187774
0.00016515207
0.00021175604
0.00025893728
0.00030508875
0.00034962561
0.0003930182
0.00043710432
0.00048626386
0.00050419943
3.2472578e-05
3.5952068e-05
4.501932e-05
6.2262427e-05
8.9740545e-05
0.0001266941
0.00016997513
0.00021613885
0.00026264853
0.00030804845
0.00035186156
0.00039461408
0.00043816291
0.00048688705
0.00050453655
3.3385636e-05
3.7226377e-05
4.7115616e-05
6.550975e-05
9.4039129e-05
0.00013151703
0.00017473427
0.00022042829
0.00026626394
0.000310924
0.00035403447
0.00039616768
0.00043919771
0.00048750214
0.00050487636
3.4440988e-05
3.8666038e-05
4.9406675e-05
6.893494e-05
9.8431142e-05
0.00013633509
0.00017942479
0.00022462386
0.00026978484
0.00031371834
0.00035614642
0.0003976804
0.00044020943
0.00048810927
0.00050521866
3.5650998e-05
4.0281593e-05
5.1895345e-05
7.2528152e-05
0.00010290139
0.00014113796
0.00018404323
0.00022872693
0.00027321053
0.0003164341
0.00035819944
0.00039915355
0.0004411987
0.00048870852
0.00050556324
3.7028239e-05
4.2082914e-05
5.4582458e-05
7.627798e-05
0.000107435
0.00014591617
0.00018858602
0.00023273625
0.00027654363
0.00031907363
0.00036019545
0.00040058834
0.00044216611
0.00048929995
0.00050590992
3.858521e-05
4.4078859e-05
5.7466697e-05
8.0171727e-05
0.00011201759
0.000150661
0.00019304982
0.00023665135
0.0002797866
0.00032163908
0.00036213614
0.00040198586
0.00044311216
0.00048988361
0.0005062585
4.0333984e-05
4.6276914e-05
6.0544535e-05
8.4195714e-05
0.00011663548
0.00015536506
0.0001974335
0.00024047012
0.00028294159
0.00032413253
0.0003640231
0.00040334713
0.00044403732
0.00049045953
0.00050660879
4.2285795e-05
4.8682833e-05
6.3810253e-05
8.8335554e-05
0.00012127563
0.00016002118
0.0002017335
0.00024419364
0.00028601052
0.0003265559
0.0003658578
0.00040467304
0.00044494201
0.0004910277
0.00050696059
4.4450569e-05
5.1300311e-05
6.7256027e-05
9.2576417e-05
0.00012592571
0.00016462282
0.00020594659
0.00024782322
0.00028899521
0.00032891097
0.00036764159
0.00040596444
0.00044582658
0.00049158811
0.00050731372
4.6836429e-05
5.4130695e-05
7.087211e-05
9.6903374e-05
0.00013057452
0.00016916546
0.00021006866
0.00025135992
0.00029189739
0.00033119938
0.0003693757
0.00040722208
0.00044669134
0.00049214072
0.00050766799
4.9449201e-05
5.7172768e-05
7.4647017e-05
0.00010130143
0.00013521096
0.00017364205
0.00021409916
0.00025480469
0.00029471867
0.00033342263
0.00037106125
0.00040844662
0.00044753658
0.00049268548
0.00050802321
5.2291954e-05
6.0422625e-05
7.8567859e-05
0.00010575616
0.0001398262
0.00017804499
0.00021803738
0.0002581585
0.00029746054
0.00033558211
0.00037269926
0.00040963868
0.00044836251
0.00049322233
0.00050837919
5.5364615e-05
6.3873622e-05
8.2620507e-05
0.00011025307
0.00014440977
0.0001823696
0.00022188259
0.00026142224
0.00030012436
0.00033767908
0.00037429065
0.00041079879
0.00044916933
0.00049375118
0.00050873575
5.8663718e-05
6.75165e-05
8.6790206e-05
0.00011477949
0.00014894994
0.00018661224
0.0002256342
0.00026459674
0.00030271138
0.00033971468
0.00037583625
0.00041192741
0.00044995718
0.00049427192
0.00050909271
6.2182279e-05
7.1339515e-05
9.1061547e-05
0.00011932073
0.00015343783
0.00019076952
0.00022929164
0.00026768275
0.00030522271
0.00034168992
0.00037733678
0.00041302493
0.00045072616
0.00049478445
0.00050944987
6.5909905e-05
7.5328899e-05
9.5419295e-05
0.0001238614
0.00015786582
0.00019483832
0.00023285441
0.00027068094
0.00030765935
0.0003436057
0.00037879287
0.00041409169
0.00045147635
0.00049528862
0.00050980706
6.983335e-05
7.9469369e-05
9.9844974e-05
0.00012838879
0.00016222688
0.00019881581
0.00023632202
0.00027359189
0.00031002216
0.00034546281
0.00038020506
0.00041512796
0.00045220777
0.00049578428
0.00051016408
7.3935808e-05
8.3742082e-05
0.00010432139
0.00013289091
0.00016651454
0.00020269933
0.00023969399
0.00027641606
0.00031231191
0.00034726192
0.00038157379
0.00041613393
0.0004529204
0.00049627126
0.00051052074
7.8197234e-05
8.8127054e-05
0.00010883166
0.00013735652
0.00017072281
0.00020648645
0.00024296983
0.00027915384
0.0003145292
0.00034900356
0.00038289943
0.00041710975
0.0004536142
0.00049674935
0.00051087685
8.2595409e-05
9.2603436e-05
0.0001133593
0.00014177513
0.0001748462
0.00021017492
0.00024614902
0.0002818055
0.00031667453
0.00035068819
0.00038418223
0.00041805547
0.00045428905
0.00049721836
0.0005112322
8.7106603e-05
9.714994e-05
0.00011788844
0.00014613697
0.00017887966
0.00021376264
0.00024923105
0.00028437122
0.00031874829
0.00035231613
0.00038542237
0.0004189711
0.00045494483
0.00049767803
0.0005115866
9.1706244e-05
0.00010174524
0.00012240386
0.00015043298
0.0001828186
0.00021724766
0.00025221538
0.00028685108
0.00032075073
0.00035388759
0.00038661993
0.00041985657
0.00045558134
0.0004981281
0.00051193983
9.6369539e-05
0.00010636836
0.00012689112
0.00015465482
0.00018665881
0.00022062821
0.00025510147
0.00028924508
0.00032268201
0.00035540269
0.0003877749
0.00042071176
0.00045619835
0.00049856828
0.00051229166
0.00010107204
0.00011099897
0.00013133666
0.00015879483
0.00019039653
0.00022390267
0.00025788877
0.00029155314
0.00032454217
0.00035686144
0.0003888872
0.00042153646
0.00045679558
0.00049899825
0.00051264186
0.00010579014
0.00011561769
0.00013572778
0.00016284607
0.00019402836
0.00022706958
0.00026057677
0.00029377512
0.00032633118
0.00035826375
0.00038995666
0.00042233043
0.00045737272
0.00049941768
0.0005129902
0.00011050143
0.00012020631
0.0001400528
0.00016680222
0.00019755133
0.00023012766
0.00026316498
0.00029591084
0.00032804891
0.00035960948
0.00039098304
0.00042309334
0.00045792939
0.00049982618
0.0005133364
0.00011518505
0.00012474796
0.00014430101
0.00017065767
0.00020096285
0.00023307583
0.00026565295
0.00029796009
0.00032969519
0.00036089838
0.00039196601
0.00042382481
0.00045846519
0.00050022337
0.00051368022
0.00011982184
0.00012922722
0.00014846272
0.00017440745
0.0002042607
0.00023591321
0.00026804032
0.00029992264
0.00033126977
0.00036213014
0.00039290523
0.00042452443
0.00045897968
0.00050060883
0.00051402136
0.00012439451
0.0001336302
0.00015252929
0.00017804723
0.00020744309
0.0002386391
0.00027032682
0.0003017983
0.00033277241
0.00036330444
0.00039380025
0.00042519172
0.00045947238
0.0005009821
0.00051435954
0.00012888768
0.00013794454
0.00015649311
0.00018157331
0.00021050858
0.00024125308
0.00027251227
0.00030358689
0.00033420284
0.0003644209
0.00039465063
0.00042582619
0.00045994279
0.00050134273
0.00051469445
0.00013328787
0.00014215945
0.00016034757
0.0001849826
0.00021345611
0.00024375491
0.00027459666
0.00030528831
0.0003355608
0.00036547912
0.00039545588
0.0004264273
0.00046039038
0.00050169025
0.00051502577
0.0001375835
0.00014626566
0.00016408704
0.00018827261
0.00021628499
0.00024614461
0.00027658009
0.00030690252
0.00033684608
0.00036647873
0.00039621552
0.00042699452
0.00046081461
0.00050202418
0.00051535318
0.00014176474
0.00015025531
0.00016770686
0.0001914414
0.00021899491
0.00024842244
0.00027846283
0.0003084296
0.0003380585
0.00036741936
0.00039692907
0.00042752729
0.00046121494
0.00050234401
0.00051567635
0.00014582347
0.00015412193
0.00017120324
0.0001944876
0.00022158589
0.00025058892
0.00028024533
0.00030986972
0.00033919796
0.00036830071
0.00039759605
0.0004280251
0.00046159084
0.00050264928
0.00051599493
0.0001497531
0.00015786033
0.00017457328
0.00019741033
0.00022405826
0.00025264476
0.00028192821
0.0003112232
0.00034026447
0.00036912251
0.00039821605
0.00042848743
0.00046194178
0.00050293951
0.00051630858
0.00015354851
0.00016146651
0.00017781485
0.00020020923
0.00022641271
0.00025459096
0.00028351228
0.00031249049
0.00034125812
0.00036988457
0.00039878868
0.00042891381
0.00046226727
0.00050321424
0.00051661694
0.00015720584
0.00016493751
0.00018092655
0.00020288435
0.0002286502
0.00025642871
0.00028499854
0.00031367221
0.00034217913
0.0003705868
0.00039931365
0.00042930382
0.00046256685
0.00050347303
0.00051691966
0.00016072243
0.00016827139
0.00018390767
0.00020543619
0.00023077196
0.00025815941
0.00028638815
0.00031476912
0.00034302785
0.00037122921
0.00039979072
0.00042965708
0.0004628401
0.00050371548
0.00051721639
0.00016409663
0.00017146705
0.00018675809
0.00020786563
0.00023277948
0.00025978468
0.00028768248
0.00031578214
0.00034380475
0.00037181192
0.00040021976
0.0004299733
0.00046308666
0.00050394122
0.00051750679
0.00016732771
0.00017452418
0.00018947826
0.00021017388
0.0002346745
0.00026130632
0.00028888303
0.00031671235
0.00034451048
0.00037233517
0.00040060072
0.00043025228
0.00046330622
0.00050414993
0.00051779052
0.00017041573
0.00017744314
0.0001920691
0.00021236249
0.00023645894
0.0002627263
0.00028999151
0.000317561
0.00034514578
0.00037279933
0.00040093368
0.00043049387
0.00046349856
0.00050434131
0.00051806724
0.00017336145
0.00018022489
0.00019453196
0.00021443325
0.00023813491
0.00026404672
0.00029100973
0.00031832946
0.00034571159
0.00037320489
0.00040121881
0.00043069806
0.00046366352
0.00050451514
0.00051833663
0.0001761662
0.00018287089
0.00019686858
0.00021638823
0.00023970471
0.00026526984
0.00029193966
0.00031901926
0.00034620895
0.0003735525
0.00040145643
0.00043086491
0.000463801
0.00050467125
0.00051859839
0.00017883182
0.00018538304
0.00019908099
0.00021822968
0.00024117073
0.00026639803
0.0002927834
0.00031963206
0.00034663906
0.00037384291
0.00040164694
0.00043099459
0.00046391102
0.0005048095
0.00051885222
0.00018136057
0.00018776361
0.00020117152
0.00021996004
0.00024253553
0.00026743375
0.00029354312
0.00032016965
0.00034700323
0.00037407702
0.00040179089
0.00043108737
0.00046399366
0.00050492985
0.00051909784
0.00018375504
0.00019001517
0.00020314272
0.00022158192
0.00024380173
0.00026837956
0.00029422114
0.00032063391
0.00034730292
0.00037425584
0.00040188894
0.00043114363
0.00046404909
0.00050503228
0.000519335
0.00018601813
0.00019214053
0.00020499733
0.00022309802
0.00024497204
0.00026923808
0.0002948198
0.00032102684
0.00034753967
0.00037438052
0.00040194186
0.00043116387
0.00046407757
0.00050511686
0.00051956346
0.00018815294
0.00019414272
0.00020673824
0.00022451116
0.00024604925
0.00027001197
0.00029534155
0.00032135052
0.00034771516
0.00037445232
0.00040195056
0.00043114867
0.00046407944
0.0005051837
0.00051978299
0.00019016277
0.00019602492
0.00020836847
0.00022582425
0.00024703619
0.00027070395
0.00029578889
0.0003216071
0.00034783115
0.00037447259
0.00040191603
0.00043109872
0.00046405514
0.00050523299
0.00051999342
0.00019205105
0.00019779044
0.00020989113
0.00022704023
0.0002479357
0.00027131677
0.00029616433
0.0003217988
0.00034788949
0.00037444281
0.00040183937
0.00043101483
0.0004640052
0.00050526498
0.00052019457
0.00019382133
0.00019944269
0.00021130942
0.00022816212
0.00024875068
0.00027185318
0.00029647047
0.00032192792
0.00034789211
0.00037436453
0.00040172182
0.00043089789
0.00046393019
0.00050527998
0.00052038629
0.0001954772
0.00020098513
0.00021262657
0.00022919294
0.00024948402
0.00027231598
0.00029670988
0.00032199679
0.00034784101
0.00037423942
0.00040156465
0.00043074888
0.00046383082
0.00050527833
0.00052056849
0.00019702235
0.0002024213
0.00021384585
0.00023013576
0.00025013864
0.00027270793
0.00029688519
0.00032200776
0.00034773827
0.00037406918
0.00040136928
0.00043056887
0.00046370784
0.00050526048
0.00052074108
0.00019846047
0.00020375473
0.00021497057
0.00023099363
0.00025071743
0.00027303182
0.00029699901
0.00032196325
0.00034758599
0.00037385564
0.00040113718
0.00043035901
0.00046356209
0.0005052269
0.000520904
0.00019979527
0.00020498899
0.00021600402
0.00023176963
0.0002512233
0.00027329042
0.00029705398
0.00032186568
0.00034738636
0.00037360066
0.0004008699
0.00043012056
0.00046339447
0.00050517812
0.00052105725
0.00020103045
0.00020612763
0.00021694953
0.0002324668
0.00025165912
0.00027348649
0.00029705272
0.0003217175
0.00034714156
0.00037330616
0.00040056906
0.0004298548
0.00046320595
0.00050511473
0.00052120082
0.00020216973
0.00020717422
0.00021781037
0.00023308821
0.00025202776
0.00027362276
0.00029699786
0.00032152116
0.00034685384
0.00037297411