/*--------------------------------*- C++ -*----------------------------------*\
| =========                 |                                                 |
| \\      /  F ield         | OpenFOAM: The Open Source CFD Toolbox           |
|  \\    /   O peration     | Version:  2506                                  |
|   \\  /    A nd           | Website:  www.openfoam.com                      |
|    \\/     M anipulation  |                                                 |
\*---------------------------------------------------------------------------*/
FoamFile
{
    version     2.0;
    format      ascii;
    arch        "LSB;label=32;scalar=64";
    class       volScalarField;
    location    "5000/water";
    object      nut;
}
// * * * * * * * * * * * * * * * * * * * * * * * * * * * * * * * * * * * * * //

dimensions      [0 2 -1 0 0 0 0];

internalField   nonuniform List<scalar> 
6000
(
4.1367308e-05
4.1367285e-05
4.1367292e-05
4.1367317e-05
4.136735e-05
4.1367394e-05
4.1367445e-05
4.1367477e-05
4.1367269e-05
4.1365028e-05
4.1345959e-05
4.1185428e-05
3.984402e-05
3.0619188e-05
1.3489073e-05
4.0862094e-05
4.0862089e-05
4.0862128e-05
4.0862206e-05
4.086231e-05
4.0862441e-05
4.0862573e-05
4.0862525e-05
4.0861044e-05
4.0849566e-05
4.0769767e-05
4.0233638e-05
3.6930279e-05
2.3809326e-05
1.5168915e-05
4.0408426e-05
4.0408431e-05
4.0408496e-05
4.0408619e-05
4.040878e-05
4.0408965e-05
4.0409066e-05
4.0408421e-05
4.0403049e-05
4.0369314e-05
4.0169922e-05
3.9053519e-05
3.3674827e-05
1.9530254e-05
1.6389796e-05
3.9998212e-05
3.9998216e-05
3.9998298e-05
3.9998456e-05
3.9998657e-05
3.9998846e-05
3.9998699e-05
3.999645e-05
3.9982628e-05
3.9907469e-05
3.9519874e-05
3.7665236e-05
3.0439418e-05
1.6813321e-05
1.7227565e-05
3.9625122e-05
3.9625133e-05
3.9625231e-05
3.9625419e-05
3.9625638e-05
3.9625739e-05
3.9624947e-05
3.9619415e-05
3.959045e-05
3.9450123e-05
3.8807695e-05
3.6131535e-05
2.7477322e-05
1.5090355e-05
1.7763765e-05
3.9283984e-05
3.9284007e-05
3.9284119e-05
3.9284324e-05
3.9284521e-05
3.9284369e-05
3.9282279e-05
3.9270986e-05
3.9218236e-05
3.8986823e-05
3.8033859e-05
3.4524992e-05
2.4897642e-05
1.400968e-05
1.8072537e-05
3.8970512e-05
3.8970546e-05
3.8970668e-05
3.8970871e-05
3.8970973e-05
3.8970306e-05
3.8965958e-05
3.8945612e-05
3.8858945e-05
3.8510812e-05
3.7207229e-05
3.2908964e-05
2.2716803e-05
1.3360893e-05
1.8215906e-05
3.8681158e-05
3.8681199e-05
3.8681323e-05
3.8681493e-05
3.8681392e-05
3.8679823e-05
3.8671916e-05
3.8638477e-05
3.8506919e-05
3.801881e-05
3.6341286e-05
3.1331233e-05
2.0908463e-05
1.30184e-05
1.8243034e-05
3.841296e-05
3.8413006e-05
3.8413119e-05
3.8413209e-05
3.8412743e-05
3.8409742e-05
3.8396631e-05
3.8345462e-05
3.8157885e-05
3.7510375e-05
3.5450851e-05
2.9823717e-05
1.9431977e-05
1.2906145e-05
1.8191421e-05
3.816343e-05
3.8163474e-05
3.8163556e-05
3.8163497e-05
3.8162446e-05
3.8157327e-05
3.8137042e-05
3.8063106e-05
3.7808869e-05
3.6987081e-05
3.454982e-05
2.8405299e-05
1.8246291e-05
1.2977275e-05
1.8088864e-05
3.7930458e-05
3.7930491e-05
3.7930513e-05
3.793021e-05
3.7928279e-05
3.7920197e-05
3.7890497e-05
3.7788579e-05
3.7458031e-05
3.6451747e-05
3.3649968e-05
2.7085594e-05
1.7315649e-05
1.3202297e-05
1.7955551e-05
3.7712242e-05
3.7712253e-05
3.7712173e-05
3.7711499e-05
3.7708322e-05
3.7696279e-05
3.7654711e-05
3.7519641e-05
3.7104472e-05
3.5907781e-05
3.2760531e-05
2.58684e-05
1.6611172e-05
1.3561911e-05
1.7805936e-05
3.7507239e-05
3.7507212e-05
3.7506973e-05
3.7505765e-05
3.7500895e-05
3.7483757e-05
3.7427744e-05
3.725459e-05
3.6748014e-05
3.5358688e-05
3.188827e-05
2.4754408e-05
1.6110613e-05
1.4042468e-05
1.7650267e-05
3.7314115e-05
3.7314026e-05
3.7313557e-05
3.7311613e-05
3.7304527e-05
3.7281048e-05
3.7207963e-05
3.6992195e-05
3.6389e-05
3.4807726e-05
3.1037799e-05
2.3743174e-05
1.5797412e-05
1.4632945e-05
1.7495753e-05
3.7131708e-05
3.713153e-05
3.7130739e-05
3.7127817e-05
3.7117921e-05
3.7086772e-05
3.6994026e-05
3.6731629e-05
3.6028109e-05
3.4257704e-05
3.0212055e-05
2.2834479e-05
1.5659519e-05
1.5322866e-05
1.7347422e-05
3.6959006e-05
3.6958703e-05
3.6957478e-05
3.6953298e-05
3.6939934e-05
3.6899735e-05
3.6784847e-05
3.64724e-05
3.5666203e-05
3.3710866e-05
2.9412801e-05
2.2029191e-05
1.5688155e-05
1.6100896e-05
1.7208725e-05
3.6795116e-05
3.6794645e-05
3.6792855e-05
3.6787094e-05
3.6769555e-05
3.6718912e-05
3.6579574e-05
3.6214282e-05
3.5304204e-05
3.3168861e-05
2.8641157e-05
2.132974e-05
1.587657e-05
1.695401e-05
1.7081944e-05
3.6639251e-05
3.6638559e-05
3.6636051e-05
3.6628355e-05
3.6605895e-05
3.6543431e-05
3.637756e-05
3.5957252e-05
3.4942996e-05
3.2632763e-05
2.789813e-05
2.0740252e-05
1.6218811e-05
1.7867211e-05
1.6968459e-05
3.6490711e-05
3.6489738e-05
3.6486338e-05
3.6476321e-05
3.6448171e-05
3.6372563e-05
3.6178336e-05
3.5701433e-05
3.458336e-05
3.2103134e-05
2.7185145e-05
2.0266398e-05
1.6708562e-05
1.8823777e-05
1.6868922e-05
3.6348869e-05
3.6347546e-05
3.6343063e-05
3.6330312e-05
3.62957e-05
3.6205706e-05
3.5981587e-05
3.5447046e-05
3.4225914e-05
3.1580129e-05
2.6504571e-05
1.991497e-05
1.7338099e-05
1.9805967e-05
1.6783375e-05
3.6213165e-05
3.6211415e-05
3.6205638e-05
3.6189726e-05
3.6147887e-05
3.6042373e-05
3.5787125e-05
3.5194368e-05
3.3871092e-05
3.1063631e-05
2.5860194e-05
1.9693245e-05
1.8097487e-05
2.0796033e-05
1.6711346e-05
3.6083093e-05
3.6080831e-05
3.6073537e-05
3.6054024e-05
3.6004223e-05
3.5882185e-05
3.5594869e-05
3.4943693e-05
3.3519118e-05
3.0553441e-05
2.5257605e-05
1.96082e-05
1.8974102e-05
2.1777346e-05
1.6651939e-05
3.5958194e-05
3.5955329e-05
3.5946284e-05
3.592273e-05
3.5864274e-05
3.5724854e-05
3.5404824e-05
3.4695304e-05
3.3170007e-05
3.0049498e-05
2.4704419e-05
1.9665646e-05
1.9952579e-05
2.2735414e-05
1.660395e-05
3.5838054e-05
3.5834489e-05
3.582345e-05
3.5795422e-05
3.5727676e-05
3.5570179e-05
3.521706e-05
3.444945e-05
3.2823581e-05
2.9552162e-05
2.4210265e-05
1.9869402e-05
2.1015194e-05
2.3658589e-05
1.6565971e-05
3.5722292e-05
3.5717927e-05
3.5704651e-05
3.5671733e-05
3.5594133e-05
3.5418031e-05
3.50317e-05
3.4206321e-05
3.2479493e-05
2.9062524e-05
2.3786503e-05
2.022057e-05
2.2142641e-05
2.4538397e-05
1.6536511e-05
3.5610563e-05
3.5605296e-05
3.558954e-05
3.5551342e-05
3.5463408e-05
3.5268352e-05
3.48489e-05
3.3966035e-05
3.2137286e-05
2.858275e-05
2.3445668e-05
2.0717024e-05
2.3315071e-05
2.5369467e-05
1.6514097e-05
3.5502551e-05
3.549628e-05
3.5477808e-05
3.5433974e-05
3.5335321e-05
3.5121137e-05
3.466884e-05
3.3728621e-05
3.1796463e-05
2.8116417e-05
2.3200676e-05
2.1353141e-05
2.4513224e-05
2.6149157e-05
1.6497357e-05
3.5397967e-05
3.539059e-05
3.536918e-05
3.5319398e-05
3.5209747e-05
3.4976437e-05
3.4491706e-05
3.3494016e-05
3.14566e-05
2.7668794e-05
2.3063903e-05
2.2119832e-05
2.5719465e-05
2.6877012e-05
1.6485071e-05
3.5296546e-05
3.5287966e-05
3.5263414e-05
3.5207424e-05
3.5086609e-05
3.4834344e-05
3.4317681e-05
3.3262058e-05
3.1117487e-05
2.7247026e-05
2.3046253e-05
2.3004861e-05
2.6918581e-05
2.7554165e-05
1.6476201e-05
3.5198047e-05
3.5188175e-05
3.5160297e-05
3.5097901e-05
3.4965875e-05
3.4694991e-05
3.4146934e-05
3.3032492e-05
3.0779305e-05
2.6860148e-05
2.3156315e-05
2.3993438e-05
2.8098247e-05
2.8182808e-05
1.6469894e-05
3.5102251e-05
3.5091004e-05
3.5059649e-05
3.4990715e-05
3.4847558e-05
3.4558539e-05
3.3979609e-05
3.2804987e-05
3.0442844e-05
2.6518901e-05
2.3399716e-05
2.5069007e-05
2.9249139e-05
2.8765761e-05
1.6465472e-05
3.5008959e-05
3.4996268e-05
3.4961317e-05
3.488579e-05
3.4731711e-05
3.4425177e-05
3.3815813e-05
3.2579164e-05
3.0109732e-05
2.6235323e-05
2.3778717e-05
2.6214168e-05
3.0364755e-05
2.9306158e-05
1.646241e-05
3.4917993e-05
3.4903801e-05
3.4865175e-05
3.4783085e-05
3.4618425e-05
3.4295113e-05
3.3655609e-05
3.235464e-05
2.9782687e-05
2.6022142e-05
2.429206e-05
2.7411591e-05
3.1441033e-05
2.9807247e-05
1.6460313e-05
3.4829195e-05
3.4813462e-05
3.4771128e-05
3.4682592e-05
3.4507829e-05
3.416857e-05
3.3499011e-05
3.2131095e-05
2.9465731e-05
2.589204e-05
2.4935073e-05
2.8644859e-05
3.2475855e-05
3.0272255e-05
1.6458891e-05
3.4742423e-05
3.4725129e-05
3.4679107e-05
3.4584339e-05
3.4400083e-05
3.4045774e-05
3.3345975e-05
3.1908364e-05
2.9164362e-05
2.5856856e-05
2.5699991e-05
2.9899124e-05
3.3468558e-05
3.0704314e-05
1.6457936e-05
3.465756e-05
3.4638706e-05
3.4589068e-05
3.4488387e-05
3.4295378e-05
3.3926957e-05
3.3196403e-05
3.1686556e-05
2.8885627e-05
2.5926838e-05
2.6576456e-05
3.1161549e-05
3.4419484e-05
3.1106401e-05
1.6457305e-05
3.4574503e-05
3.4554114e-05
3.4500999e-05
3.4394828e-05
3.4193938e-05
3.381234e-05
3.3050148e-05
3.1466195e-05
2.8638063e-05
2.6110008e-05
2.7552148e-05
3.2421503e-05
3.5329635e-05
3.1481314e-05
1.6456902e-05
3.4493171e-05
3.4471301e-05
3.4414911e-05
3.4303789e-05
3.409601e-05
3.3702133e-05
3.2907027e-05
3.1248389e-05
2.8431492e-05
2.6411717e-05
2.8613483e-05
3.3670555e-05
3.6200409e-05
3.1831643e-05
1.6456669e-05
3.4413502e-05
3.4390234e-05
3.4330848e-05
3.4215429e-05
3.4001867e-05
3.3596524e-05
3.2766849e-05
3.1035013e-05
2.8276657e-05
2.6834392e-05
2.9746332e-05
3.4902297e-05
3.703343e-05
3.2159762e-05
1.6456572e-05
3.4335456e-05
3.4310905e-05
3.4248878e-05
3.4129939e-05
3.3911801e-05
3.3495676e-05
3.2629453e-05
3.0828885e-05
2.818473e-05
2.73775e-05
3.0936679e-05
3.6112069e-05
3.7830438e-05
3.2467823e-05
1.6456596e-05
3.4259011e-05
3.423333e-05
3.4169102e-05
3.4047543e-05
3.3826124e-05
3.3399718e-05
3.2494766e-05
3.0633923e-05
2.8166733e-05
2.8037692e-05
3.2171193e-05
3.7296637e-05
3.8593223e-05
3.2757763e-05
1.6456739e-05
3.4184168e-05
3.4157548e-05
3.409165e-05
3.3968498e-05
3.3745158e-05
3.3308744e-05
3.236288e-05
3.0455255e-05
2.8232927e-05
2.8809107e-05
3.3437649e-05
3.845388e-05
3.9323576e-05
3.3031311e-05
1.6457005e-05
3.4110952e-05
3.4083626e-05
3.4016682e-05
3.3893092e-05
3.3669236e-05
3.3222814e-05
3.2234152e-05
3.0299253e-05
2.8392247e-05
2.968379e-05
3.4725213e-05
3.9582514e-05
4.002327e-05
3.3290008e-05
1.6457402e-05
3.4039411e-05
3.4011657e-05
3.3944392e-05
3.3821645e-05
3.3598692e-05
3.3141955e-05
3.210932e-05
3.0173467e-05
2.8651821e-05
3.0652196e-05
3.6024572e-05
4.0681868e-05
4.0694026e-05
3.353522e-05
1.6457942e-05
3.3969616e-05
3.3941763e-05
3.3875008e-05
3.3754507e-05
3.3533859e-05
3.306618e-05
3.1989643e-05
3.0086447e-05
2.9016627e-05
3.1703719e-05
3.7327935e-05
4.1751711e-05
4.1337507e-05
3.3768155e-05
1.6458635e-05
3.3901667e-05
3.3874095e-05
3.3808792e-05
3.369206e-05
3.3475059e-05
3.2995507e-05
3.187704e-05
3.0047455e-05
2.9489293e-05
3.2827219e-05
3.8628938e-05
4.2792134e-05
4.1955299e-05
3.3989887e-05
1.6459492e-05
3.3835691e-05
3.3808835e-05
3.3746042e-05
3.3634709e-05
3.3422602e-05
3.2929991e-05
3.1774238e-05
3.0066081e-05
3.0070061e-05
3.4011505e-05
3.9922489e-05
4.3803458e-05
4.2548902e-05
3.4201364e-05
1.6460521e-05
3.3771846e-05
3.3746203e-05
3.3687095e-05
3.358289e-05
3.3376778e-05
3.2869781e-05
3.1684886e-05
3.0151793e-05
3.0756887e-05
3.5245744e-05
4.1204584e-05
4.4786179e-05
4.3119729e-05
3.4403428e-05
1.6461728e-05
3.3710322e-05
3.3686449e-05
3.3632325e-05
3.3537056e-05
3.3337852e-05
3.281518e-05
3.1613639e-05
3.0313469e-05
3.1545661e-05
3.651978e-05
4.2472113e-05
4.574092e-05
4.3669102e-05
3.4596827e-05
1.6463121e-05
3.3651343e-05
3.3629867e-05
3.3582146e-05
3.3497682e-05
3.3306071e-05
3.2766736e-05
3.1566177e-05
3.0558945e-05
3.243052e-05
3.782435e-05
4.3722696e-05
4.6668398e-05
4.4198256e-05
3.4782225e-05
1.6464701e-05
3.359517e-05
3.3576787e-05
3.3537014e-05
3.3465257e-05
3.328166e-05
3.2725339e-05
3.1549147e-05
3.0894638e-05
3.3404216e-05
3.9151207e-05
4.495453e-05
4.7569394e-05
4.4708339e-05
3.4960217e-05
1.6466471e-05
3.3542107e-05
3.3527584e-05
3.3497423e-05
3.3440275e-05
3.3264838e-05
3.2692337e-05
3.1570024e-05
3.1325252e-05
3.4458518e-05
4.0493152e-05
4.6166275e-05
4.8444733e-05
4.520042e-05
3.5131333e-05
1.6468431e-05
3.3492497e-05
3.3482682e-05
3.346391e-05
3.3423238e-05
3.3255838e-05
3.2669661e-05
3.163687e-05
3.1853602e-05
3.5584608e-05
4.1844009e-05
4.7356959e-05
4.9295262e-05
4.5675493e-05
3.5296047e-05
1.647058e-05
3.3446735e-05
3.3442548e-05
3.3437051e-05
3.3414644e-05
3.3254937e-05
3.2659938e-05
3.1758037e-05
3.2480557e-05
3.6773449e-05
4.3198546e-05
4.852591e-05
5.0121834e-05
4.613448e-05
3.5454787e-05
1.6472917e-05
3.3405264e-05
3.3407707e-05
3.3417461e-05
3.3414983e-05
3.32625e-05
3.2666593e-05
3.1941803e-05
3.3205089e-05
3.8016105e-05
4.4552376e-05
4.9672693e-05
5.0925299e-05
4.6578239e-05
3.5607939e-05
1.6475438e-05
3.3368581e-05
3.3378733e-05
3.3405791e-05
3.3424736e-05
3.3279045e-05
3.2693911e-05
3.2195996e-05
3.4024423e-05
3.9304e-05
4.5901847e-05
5.0797075e-05
5.1706494e-05
4.7007566e-05
3.575585e-05
1.6478139e-05
3.3337244e-05
3.3356261e-05
3.3402726e-05
3.3444374e-05
3.3305312e-05
3.2747055e-05
3.2527621e-05
3.4934265e-05
4.0629101e-05
4.7243932e-05
5.1898979e-05
5.2466235e-05
4.7423202e-05
3.5898837e-05
1.6481016e-05
3.3311875e-05
3.3340983e-05
3.3408981e-05
3.347436e-05
3.3342361e-05
3.2832014e-05
3.2942544e-05
3.5929073e-05
4.1984045e-05
4.8576139e-05
5.2978463e-05
5.3205317e-05
4.7825836e-05
3.6037187e-05
1.6484065e-05
3.3293163e-05
3.3333652e-05
3.3425294e-05
3.3515162e-05
3.3391668e-05
3.2955485e-05
3.3445235e-05
3.7002364e-05
4.3362194e-05
4.9896419e-05
5.4035684e-05
5.3924507e-05
4.8216108e-05
3.6171162e-05
1.6487281e-05
3.3281869e-05
3.3335085e-05
3.3452425e-05
3.3567272e-05
3.3455235e-05
3.3124674e-05
3.4038604e-05
3.8147029e-05
4.475765e-05
5.1203101e-05
5.5070885e-05
5.4624543e-05
4.8594615e-05
3.6301e-05
1.6490657e-05
3.3278836e-05
3.3346162e-05
3.3491148e-05
3.3631232e-05
3.3535695e-05
3.3347045e-05
3.4723923e-05
3.9355618e-05
4.6165228e-05
5.2494832e-05
5.6084369e-05
5.5306137e-05
4.8961913e-05
3.6426924e-05
1.6494188e-05
3.3284986e-05
3.3367825e-05
3.3542247e-05
3.3707681e-05
3.3636389e-05
3.3630016e-05
3.5500851e-05
4.0620607e-05
4.7580405e-05
5.377053e-05
5.707649e-05
5.596997e-05
4.9318528e-05
3.6549142e-05
1.649787e-05
3.3301328e-05
3.3401077e-05
3.3606512e-05
3.3797412e-05
3.3761429e-05
3.398064e-05
3.6367525e-05
4.1934616e-05
4.8999264e-05
5.5029342e-05
5.8047633e-05
5.6616676e-05
4.9664838e-05
3.6667083e-05
1.6501693e-05
3.3328964e-05
3.3446985e-05
3.3684744e-05
3.3901442e-05
3.3915697e-05
3.4405288e-05
3.7320731e-05
4.3290576e-05
5.0418421e-05
5.6270606e-05
5.8998201e-05
5.7246848e-05
5.0001241e-05
3.6781083e-05
1.6505652e-05
3.3369088e-05
3.3506667e-05
3.3777752e-05
3.4021097e-05
3.4104806e-05
3.4909371e-05
3.8356112e-05
4.4681847e-05
5.1834965e-05
5.7493824e-05
5.9928613e-05
5.7861058e-05
5.0328144e-05
3.6891448e-05
1.6509737e-05
3.3422991e-05
3.3581299e-05
3.3886371e-05
3.415811e-05
3.4334981e-05
3.5497108e-05
3.9468413e-05
4.6102293e-05
5.3246397e-05
5.8698632e-05
6.0839298e-05
5.8459859e-05
5.0645957e-05
3.6998447e-05
1.6513939e-05
3.3492061e-05
3.36721e-05
3.4011477e-05
3.4314718e-05
3.4612891e-05
3.6171377e-05
4.0651726e-05
4.7546317e-05
5.4650579e-05
5.9884782e-05
6.1730687e-05
5.904373e-05
5.095464e-05
3.7102364e-05
1.6518251e-05
3.3577784e-05
3.3780337e-05
3.4154025e-05
3.4493751e-05
3.4945413e-05
3.6933629e-05
4.1899738e-05
4.9008863e-05
5.6045687e-05
6.105212e-05
6.2603201e-05
5.9613113e-05
5.1254408e-05
3.7203362e-05
1.6522664e-05
3.3681741e-05
3.3907315e-05
3.431509e-05
3.4698706e-05
3.5339374e-05
3.7783892e-05
4.3205948e-05
5.0485399e-05
5.7430167e-05
6.2200568e-05
6.345726e-05
6.0168467e-05
5.1545764e-05
3.7301527e-05
1.6527174e-05
3.3805608e-05
3.4054377e-05
3.4495927e-05
3.4933787e-05
3.5801254e-05
3.8720834e-05
4.4563854e-05
5.1971889e-05
5.8802706e-05
6.3330112e-05
6.4293283e-05
6.0710255e-05
5.1829145e-05
3.7396969e-05
1.6531776e-05
3.3951147e-05
3.4222911e-05
3.4698048e-05
3.5203901e-05
3.6336912e-05
3.9741897e-05
4.5967114e-05
5.3464748e-05
6.0162197e-05
6.4440794e-05
6.5111678e-05
6.1238807e-05
5.2104955e-05
3.7489814e-05
1.6536466e-05
3.4120204e-05
3.4414352e-05
3.4923304e-05
3.55146e-05
3.6951332e-05
4.0843463e-05
4.7409651e-05
5.4960807e-05
6.1507712e-05
6.5532693e-05
6.5912794e-05
6.1754111e-05
5.2373582e-05
3.7580209e-05
1.6541242e-05
3.4314705e-05
3.4630209e-05
3.517398e-05
3.5871966e-05
3.764842e-05
4.2021056e-05
4.8885741e-05
5.6457272e-05
6.2838475e-05
6.6605918e-05
6.6696993e-05
6.2256737e-05
5.2635232e-05
3.7668258e-05
1.65461e-05
3.4536649e-05
3.4872087e-05
3.5452885e-05
3.6282429e-05
3.8430857e-05
4.326955e-05
5.0390051e-05
5.7951679e-05
6.4153844e-05
6.7660604e-05
6.7464659e-05
6.2747197e-05
5.2890125e-05
3.7754048e-05
1.6551039e-05
3.4788111e-05
3.5141734e-05
3.5763432e-05
3.6752554e-05
3.9300026e-05
4.4583379e-05
5.1917668e-05
5.9441865e-05
6.5453288e-05
6.8696915e-05
6.8216193e-05
6.3225951e-05
5.313849e-05
3.7837657e-05
1.6556054e-05
3.5071243e-05
3.54411e-05
3.6109689e-05
3.7288777e-05
4.0256008e-05
4.5956728e-05
5.3464098e-05
6.0925934e-05
6.673638e-05
6.9714997e-05
6.895149e-05
6.3693461e-05
5.3380579e-05
3.791918e-05
1.6561142e-05
3.5388293e-05
3.5772406e-05
3.6496399e-05
3.7897138e-05
4.1297637e-05
4.7383696e-05
5.5025254e-05
6.2402223e-05
6.8002762e-05
7.0715001e-05
6.9671031e-05
6.4150038e-05
5.3616599e-05
3.7998705e-05
1.6566299e-05
3.5741627e-05
3.6138231e-05
3.6928946e-05
3.8583026e-05
4.2422608e-05
4.8858444e-05
5.6597433e-05
6.3869276e-05
6.9252146e-05
7.1697118e-05
7.0375289e-05
6.4595981e-05
5.3846738e-05
3.8076308e-05
1.6571522e-05
3.6133769e-05
3.6541605e-05
3.7413259e-05
3.9350944e-05
4.3627631e-05
5.0375295e-05
5.8177295e-05
6.5325814e-05
7.0484306e-05
7.2661574e-05
7.1064701e-05
6.5031588e-05
5.4071175e-05
3.8152052e-05
1.6576808e-05
3.6567458e-05
3.6986089e-05
3.7955671e-05
4.0204331e-05
4.4908603e-05
5.1928818e-05
5.9761834e-05
6.6770735e-05
7.1699055e-05
7.3608217e-05
7.1739649e-05
6.5457157e-05
5.42901e-05
3.8226e-05
1.6582153e-05
3.7045714e-05
3.7475851e-05
3.8562711e-05
4.1145436e-05
4.6260794e-05
5.3513876e-05
6.1348346e-05
6.8203057e-05
7.2896223e-05
7.4537349e-05
7.2400484e-05
6.5872952e-05
5.450369e-05
3.8298213e-05
1.6587554e-05
3.7571923e-05
3.8015708e-05
3.9240863e-05
4.2175267e-05
4.7679029e-05
5.5125659e-05
6.29344e-05
6.9621914e-05
7.4075697e-05
7.5449296e-05
7.3047525e-05
6.6279222e-05
5.4712105e-05
3.8368746e-05
1.6593007e-05
3.8149919e-05
3.8611118e-05
3.9996306e-05
4.3293587e-05
4.915786e-05
5.6759693e-05
6.4517815e-05
7.1026552e-05
7.5237336e-05
7.6344341e-05
7.368107e-05
6.667621e-05
5.4915493e-05
3.843765e-05
1.6598509e-05
3.8784058e-05
3.9268125e-05
4.0834642e-05
4.4498986e-05
5.0691716e-05
5.8411847e-05
6.6096638e-05
7.2416302e-05
7.638093e-05
7.722273e-05
7.4301395e-05
6.7064158e-05
5.5113995e-05
3.8504968e-05
1.6604057e-05
3.9479266e-05
3.9993229e-05
4.1760656e-05
4.5788988e-05
5.2275028e-05
6.0078309e-05
6.7669099e-05
7.379054e-05
7.75065e-05
7.8084768e-05
7.4908765e-05
6.744329e-05
5.5307744e-05
3.8570745e-05
1.6609648e-05
4.024105e-05
4.0793201e-05
4.2778112e-05
4.7160194e-05
5.3902325e-05
6.1755576e-05
6.9233594e-05
7.5148734e-05
7.8614135e-05
7.8930712e-05
7.5503431e-05
6.7813812e-05
5.5496864e-05
3.8635018e-05
1.6615277e-05
4.1075439e-05
4.1674836e-05
4.3889605e-05
4.8608452e-05
5.5568319e-05
6.3440454e-05
7.0788716e-05
7.649028e-05
7.9703762e-05
7.9760763e-05
7.6085643e-05
6.8175921e-05
5.5681469e-05
3.8697822e-05
1.6620943e-05
4.1988861e-05
4.2644668e-05
4.5096472e-05
5.0129021e-05
5.7267943e-05
6.5129998e-05
7.2333118e-05
7.7814712e-05
8.0775573e-05
8.0575124e-05
7.6655638e-05
6.8529802e-05
5.5861666e-05
3.875919e-05
1.6626641e-05
4.2987938e-05
4.3708661e-05
4.6398769e-05
5.1716742e-05
5.8996385e-05
6.6821492e-05
7.3865576e-05
7.9121716e-05
8.1829699e-05
8.1373995e-05
7.721363e-05
6.8875629e-05
5.6037554e-05
3.8819151e-05
1.6632368e-05
4.4079205e-05
4.4871911e-05
4.7795311e-05
5.3366196e-05
6.0749125e-05
6.8512498e-05
7.5384948e-05
8.0410819e-05
8.2866187e-05
8.215757e-05
7.7759824e-05
6.9213561e-05
5.6209224e-05
3.8877731e-05
1.6638121e-05
4.5268777e-05
4.6138375e-05
4.9283755e-05
5.5071827e-05
6.2521903e-05
7.0200691e-05
7.6890129e-05
8.1681923e-05
8.3885095e-05
8.292603e-05
7.8294413e-05
6.9543749e-05
5.6376761e-05
3.8934953e-05
1.6643897e-05
4.6561979e-05
4.7510638e-05
5.0860718e-05
5.682805e-05
6.4310721e-05
7.1883921e-05
7.8380177e-05
8.2934901e-05
8.488649e-05
8.3679542e-05
7.8817574e-05
6.986633e-05
5.654024e-05
3.8990838e-05
1.6649693e-05
4.7962971e-05
4.8989767e-05
5.2521936e-05
5.862936e-05
6.6111889e-05
7.3560214e-05
7.9854065e-05
8.4169528e-05
8.5870433e-05
8.4418259e-05
7.9329471e-05
7.018143e-05
5.6699732e-05
3.9045404e-05
1.6655506e-05
4.9474417e-05
5.0575209e-05
5.4262397e-05
6.0470345e-05
6.7921855e-05
7.5227611e-05
8.1311306e-05
8.5385622e-05
8.6836976e-05
8.5142323e-05
7.9830255e-05
7.0489168e-05
5.6855301e-05
3.9098667e-05
1.6661332e-05
5.1097215e-05
5.226479e-05
5.6076518e-05
6.23458e-05
6.9737353e-05
7.6884156e-05
8.2751275e-05
8.6583008e-05
8.7786158e-05
8.585186e-05
8.0320063e-05
7.0789648e-05
5.7007004e-05
3.9150642e-05
1.6667169e-05
5.2830315e-05
5.4054754e-05
5.7958249e-05
6.4250622e-05
7.1555157e-05
7.852846e-05
8.4173364e-05
8.7761511e-05
8.871801e-05
8.6546981e-05
8.0799019e-05
7.1082967e-05
5.7154892e-05
3.9201339e-05
1.6673013e-05
5.4670664e-05
5.5939892e-05
5.9901236e-05
6.6179924e-05
7.3372035e-05
8.0159231e-05
8.5576999e-05
8.8920955e-05
8.9632546e-05
8.7227781e-05
8.1267231e-05
7.1369209e-05
5.7299012e-05
3.9250768e-05
1.6678861e-05
5.6613237e-05
5.7913673e-05
6.189882e-05
6.8128783e-05
7.5185414e-05
8.1775212e-05
8.6961627e-05
9.0061154e-05
9.0529766e-05
8.7894339e-05
8.1724794e-05
7.1648451e-05
5.7439403e-05
3.9298937e-05
1.6684711e-05
5.8651199e-05
5.9968439e-05
6.394413e-05
7.0092406e-05
7.6992927e-05
8.337521e-05
8.8326706e-05
9.1181916e-05
9.1409653e-05
8.8546715e-05
8.2171788e-05
7.1920756e-05
5.7576098e-05
3.9345852e-05
1.6690558e-05
6.0776085e-05
6.2095473e-05
6.6030022e-05
7.2066631e-05
7.8792322e-05
8.4958082e-05
8.9671702e-05
9.2283032e-05
9.2272171e-05
8.9184952e-05
8.2608279e-05
7.2186179e-05
5.7709126e-05
3.9391515e-05
1.6696401e-05
6.2978002e-05
6.4285376e-05
6.8149664e-05
7.4047449e-05
8.0581453e-05
8.6522726e-05
9.0996083e-05
9.3364281e-05
9.3117261e-05
8.9809072e-05
8.3034314e-05
7.2444762e-05
5.7838509e-05
3.9435927e-05
1.6702236e-05
6.5246091e-05
6.652835e-05
7.0296272e-05
7.6030993e-05
8.2358263e-05
8.8068075e-05
9.2299315e-05
9.4425423e-05
9.3944846e-05
9.0419077e-05
8.3449927e-05
7.2696538e-05
5.796426e-05
3.9479088e-05
1.6708059e-05
6.7568913e-05
6.881438e-05
7.2463149e-05
7.8013519e-05
8.4120775e-05
8.9593087e-05
9.358086e-05
9.5466198e-05
9.4754823e-05
9.1014948e-05
8.3855134e-05
7.2941526e-05
5.8086389e-05
3.9520993e-05
1.6713868e-05
6.9934793e-05
7.1133436e-05
7.4643719e-05
7.9991402e-05
8.5867075e-05
9.1096742e-05
9.484017e-05
9.6486326e-05
9.5547066e-05
9.1596645e-05
8.4249932e-05
7.3179733e-05
5.8204898e-05
3.9561637e-05
1.671966e-05
7.233214e-05
7.3475651e-05
7.6831564e-05
8.196112e-05
8.7595307e-05
9.2578037e-05
9.6076692e-05
9.7485507e-05
9.6321425e-05
9.2164103e-05
8.4634302e-05
7.3411155e-05
5.8319781e-05
3.9601011e-05
1.672543e-05
7.4749701e-05
7.5831474e-05
7.9020463e-05
8.3919255e-05
8.9303663e-05
9.4035982e-05
9.7289863e-05
9.8463422e-05
9.7077726e-05
9.2717238e-05
8.5008206e-05
7.3635775e-05
5.8431026e-05
3.9639103e-05
1.6731175e-05
7.7176769e-05
7.8191802e-05
8.1204426e-05
8.586249e-05
9.0990382e-05
9.5469602e-05
9.8479113e-05
9.941973e-05
9.7815775e-05
9.3255942e-05
8.5371588e-05
7.3853563e-05
5.8538613e-05
3.9675898e-05
1.6736892e-05
7.9603336e-05
8.0548079e-05
8.3377737e-05
8.7787618e-05
9.2653746e-05
9.6877935e-05
9.9643867e-05
0.00010035408
9.8535352e-05
9.3780088e-05
8.5724377e-05
7.4064475e-05
5.8642515e-05
3.9711381e-05
1.6742577e-05
8.2020193e-05
8.2892365e-05
8.5534982e-05
8.9691548e-05
9.4292083e-05
9.8260036e-05
0.00010078355
0.0001012661
9.9236224e-05
9.4289528e-05
8.6066482e-05
7.4268458e-05
5.8742696e-05
3.9745529e-05
1.6748226e-05
8.4418987e-05
8.5217389e-05
8.7671083e-05
9.1571314e-05
9.5903772e-05
9.961498e-05
0.00010189759
0.00010215541
9.9918139e-05
9.4784098e-05
8.6397798e-05
7.4465445e-05
5.8839117e-05
3.9778321e-05
1.6753834e-05
8.6792241e-05
8.7516572e-05
8.9781322e-05
9.3424093e-05
9.7487245e-05
0.00010094187
0.00010298541
0.00010302164
0.00010058084
9.5263622e-05
8.6718208e-05
7.4655359e-05
5.8931728e-05
3.9809731e-05
1.6759397e-05
8.9133349e-05
8.9784028e-05
9.186136e-05
9.524722e-05
9.9040998e-05
0.00010223982
0.00010404648
0.0001038644
0.00010122404
9.5727909e-05
8.7027583e-05
7.4838115e-05
5.9020476e-05
3.9839731e-05
1.676491e-05
9.1436543e-05
9.2014559e-05
9.3907252e-05
9.7038194e-05
0.0001005636
0.00010350802
0.00010508025
0.00010468332
0.0001018475
9.6176765e-05
8.7325784e-05
7.501362e-05
5.9105302e-05
3.986829e-05
1.6770368e-05
9.3696856e-05
9.4203629e-05
9.591545e-05
9.8794703e-05
0.0001020537
0.00010474567
0.00010608622
0.00010547806
0.00010245092
9.6609991e-05
8.7612669e-05
7.5181775e-05
5.9186145e-05
3.9895378e-05
1.6775767e-05
9.5910061e-05
9.6347332e-05
9.7882802e-05
0.00010051462
0.00010351005
0.00010595203
0.00010706392
0.00010624826
0.00010303407
9.7027393e-05
8.7888094e-05
7.5342478e-05
5.9262939e-05
3.9920962e-05
1.6781101e-05
9.8072623e-05
9.8442358e-05
9.980655e-05
0.00010219604
0.00010493147
0.00010712642
0.00010801291
0.00010699361
0.0001035967
9.7428781e-05
8.8151914e-05
7.5495627e-05
5.9335619e-05
3.9945009e-05
1.6786364e-05
0.00010018163
0.00010048594
0.00010168432
0.00010383724
0.00010631692
0.00010826822
0.00010893282
0.00010771385
0.00010413859
9.7813978e-05
8.8403992e-05
7.5641121e-05
5.9404119e-05
3.9967486e-05
1.679155e-05
0.00010223474
0.00010247583
0.00010351409
0.00010543672
0.00010766545
0.00010937689
0.00010982329
0.00010840872
0.00010465954
9.8182826e-05
8.86442e-05
7.5778866e-05
5.9468378e-05
3.9988362e-05
1.6796655e-05
0.00010423012
0.00010441023
0.0001052942
0.0001069932
0.00010897625
0.00011045195
0.00011068405
0.00010907803
0.0001051594
9.8535184e-05
8.8872423e-05
7.5908772e-05
5.9528335e-05
4.0007607e-05
1.6801672e-05
0.00010616638
0.00010628775
0.0001070233
0.00010850559
0.00011024862
0.00011149301
0.00011151486
0.00010972163
0.00010563803
9.8870937e-05
8.9088561e-05
7.6030761e-05
5.9583937e-05
4.0025193e-05
1.6806595e-05
0.00010804254
0.0001081074
0.00010870037
0.00010997301
0.00011148197
0.00011249975
0.00011231557
0.0001103394
0.00010609535
9.9189998e-05
8.9292532e-05
7.6144766e-05
5.9635137e-05
4.0041097e-05
1.6811419e-05
0.00010985798
0.00010986851
0.00011032463
0.00011139477
0.00011267585
0.00011347193
0.00011308607
0.0001109313
0.0001065313
9.9492311e-05
8.9484277e-05
7.6250733e-05
5.9681897e-05
4.0055297e-05
1.6816138e-05
0.00011161237
0.00011157068
0.00011189558
0.00011277038
0.00011382992
0.00011440941
0.00011382632
0.00011149732
0.00010694588
9.9777851e-05
8.9663761e-05
7.6348625e-05
5.9724186e-05
4.0067778e-05
1.6820747e-05
0.00011330566
0.00011321381
0.00011341293
0.00011409949
0.00011494395
0.0001153121
0.00011453633
0.0001120375
0.00010733913
0.00010004663
8.9830971e-05
7.643842e-05
5.9761985e-05
4.0078527e-05
1.682524e-05
0.000114938
0.00011479799
0.00011487661
0.00011538194
0.00011601785
0.00011618001
0.00011521618
0.00011255194
0.0001077111
0.00010029868
8.9985921e-05
7.6520115e-05
5.9795284e-05
4.0087539e-05
1.6829612e-05
0.00011650977
0.00011632351
0.00011628673
0.0001166177
0.00011705158
0.00011701321
0.000115866
0.00011304078
0.00010806193
0.00010053409
9.0128649e-05
7.6593724e-05
5.9824086e-05
4.009481e-05
1.6833858e-05
0.00011802149
0.00011779082
0.00011764353
0.00011780687
0.00011804525
0.00011781183
0.00011648598
0.0001135042
0.00010839176
0.00010075296
9.0259222e-05
7.6659278e-05
5.9848404e-05
4.0100346e-05
1.6837974e-05
0.00011947382
0.00011920052
0.00011894742
0.00011894967
0.00011899902
0.00011857609
0.00011707635
0.00011394245
0.0001087008
0.00010095543
9.0377728e-05
7.671683e-05
5.9868262e-05
4.0104154e-05
1.6841956e-05
0.00012086753
0.00012055332
0.00012019892
0.00012004643
0.00011991315
0.00011930625
0.0001176374
0.00011435579
0.00010898926
0.00010114168
9.0484284e-05
7.6766447e-05
5.9883697e-05
4.0106249e-05
1.6845799e-05
0.0001222035
0.00012185001
0.00012139863
0.00012109758
0.00012078797
0.00012000264
0.00011816946
0.00011474453
0.00010925742
0.00010131191
9.0579027e-05
7.6808215e-05
5.9894755e-05
4.0106651e-05
1.68495e-05
0.00012348266
0.00012309147
0.00012254726
0.00012210361
0.00012162388
0.00012066562
0.00011867288
0.00011510901
0.00010950556
0.00010146634
9.066212e-05
7.6842238e-05
5.9901494e-05
4.0105383e-05
1.6853055e-05
0.00012470602
0.00012427866
0.00012364558
0.0001230651
0.00012242134
0.00012129561
0.00011914809
0.00011544961
0.00010973402
0.00010160524
9.0733747e-05
7.6868636e-05
5.9903983e-05
4.0102475e-05
1.6856463e-05
0.00012587464
0.00012541258
0.00012469443
0.0001239827
0.00012318086
0.00012189308
0.00011959551
0.00011576673
0.00010994313
0.00010172887
9.0794112e-05
7.6887545e-05
5.9902302e-05
4.0097961e-05
1.6859721e-05
0.00012698962
0.00012649427
0.0001256947
0.0001248571
0.00012390301
0.00012245853
0.00012001561
0.00011606082
0.00011013328
0.00010183755
9.0843443e-05
7.6899118e-05
5.989654e-05
4.0091879e-05
1.6862826e-05
0.0001280521
0.00012752483
0.00012664733
0.00012568905
0.00012458839
0.0001229925
0.0001204089
0.00011633232
0.00011030487
0.00010193161
9.0881985e-05
7.6903523e-05
5.9886796e-05
4.0084274e-05
1.6865777e-05
0.00012906324
0.00012850537
0.0001275533
0.00012647935
0.00012523765
0.00012349556
0.00012077591
0.00011658173
0.00011045833
0.00010201138
9.0910003e-05
7.6900944e-05
5.987318e-05
4.0075192e-05
1.6868573e-05
0.00013002426
0.00012943705
0.00012841362
0.00012722882
0.0001258515
0.00012396832
0.00012111719
0.00011680955
0.00011059409
0.00010207725
9.0927781e-05
7.6891578e-05
5.9855813e-05
4.0064686e-05
1.6871212e-05
0.00013093636
0.00013032104
0.00012922933
0.00012793833
0.00012643064
0.00012441141
0.00012143333
0.00011701631
0.00011071264
0.00010212959
9.0935621e-05
7.6875639e-05
5.9834823e-05
4.0052812e-05
1.6873696e-05
0.0001318008
0.00013115854
0.00013000153
0.00012860881
0.00012697586
0.00012482551
0.00012172494
0.00011720257
0.00011081445
0.00010216883
9.0933844e-05
7.6853354e-05
5.9810348e-05
4.003963e-05
1.6876024e-05
0.00013261886
0.00013195079
0.0001307313
0.00012924118
0.00012748793
0.0001252113
0.00012199263
0.00011736891
0.00011090004
0.00010219538