/*--------------------------------*- C++ -*----------------------------------*\
| =========                 |                                                 |
| \\      /  F ield         | OpenFOAM: The Open Source CFD Toolbox           |
|  \\    /   O peration     | Version:  2506                                  |
|   \\  /    A nd           | Website:  www.openfoam.com                      |
|    \\/     M anipulation  |                                                 |
\*---------------------------------------------------------------------------*/
FoamFile
{
    version     2.0;
    format      ascii;
    arch        "LSB;label=32;scalar=64";
    class       volScalarField;
    location    "5000/water";
    object      T;
}
// * * * * * * * * * * * * * * * * * * * * * * * * * * * * * * * * * * * * * //

dimensions      [0 0 0 1 0 0 0];

internalField   nonuniform List<scalar> 
6000
(
333.15
333.15
333.15
333.15
333.15
333.15
333.15
333.15
333.15
333.15
333.15
333.14998
333.14989
333.14924
333.14252
333.15
333.15
333.15
333.15
333.15
333.15
333.15
333.15
333.15
333.15
333.14999
333.14994
333.14968
333.14815
333.13659
333.15
333.15
333.15
333.15
333.15
333.15
333.15
333.15
333.15
333.14999
333.14997
333.14987
333.14939
333.14687
333.1316
333.15
333.15
333.15
333.15
333.15
333.15
333.15
333.15
333.15
333.14999
333.14994
333.14976
333.14902
333.14544
333.12723
333.15
333.15
333.15
333.15
333.15
333.15
333.15
333.15
333.14999
333.14997
333.1499
333.14963
333.14859
333.14391
333.1233
333.15
333.15
333.15
333.15
333.15
333.15
333.15
333.15
333.14999
333.14996
333.14985
333.14947
333.14811
333.14231
333.11972
333.15
333.15
333.15
333.15
333.15
333.15
333.15
333.14999
333.14998
333.14993
333.14978
333.14929
333.14758
333.14065
333.11641
333.15
333.15
333.15
333.15
333.15
333.15
333.15
333.14999
333.14997
333.14991
333.1497
333.14908
333.14701
333.13896
333.11333
333.15
333.15
333.15
333.15
333.15
333.15
333.15
333.14999
333.14996
333.14987
333.14961
333.14885
333.1464
333.13724
333.11046
333.15
333.15
333.15
333.15
333.15
333.15
333.14999
333.14998
333.14994
333.14983
333.14951
333.14861
333.14574
333.13552
333.10777
333.15
333.15
333.15
333.15
333.15
333.15
333.14999
333.14997
333.14992
333.14978
333.1494
333.14834
333.14505
333.13379
333.10525
333.15
333.15
333.15
333.15
333.15
333.15
333.14999
333.14997
333.1499
333.14973
333.14928
333.14806
333.14432
333.13206
333.10288
333.15
333.15
333.15
333.15
333.15
333.14999
333.14998
333.14996
333.14988
333.14967
333.14915
333.14775
333.14354
333.13035
333.10066
333.15
333.15
333.15
333.15
333.15
333.14999
333.14998
333.14994
333.14985
333.14961
333.149
333.14742
333.14272
333.12865
333.09858
333.15
333.15
333.15
333.15
333.15
333.14999
333.14997
333.14993
333.14982
333.14953
333.14885
333.14707
333.14186
333.12699
333.09664
333.15
333.15
333.15
333.15
333.15
333.14999
333.14997
333.14991
333.14978
333.14946
333.14868
333.1467
333.14095
333.12535
333.09483
333.15
333.15
333.15
333.15
333.14999
333.14998
333.14996
333.1499
333.14974
333.14937
333.14851
333.1463
333.14
333.12375
333.09315
333.15
333.15
333.15
333.15
333.14999
333.14998
333.14995
333.14988
333.1497
333.14928
333.14832
333.14586
333.13901
333.1222
333.0916
333.15
333.15
333.15
333.15
333.14999
333.14998
333.14994
333.14985
333.14965
333.14919
333.14812
333.1454
333.13797
333.12069
333.09018
333.15
333.15
333.15
333.14999
333.14999
333.14997
333.14993
333.14983
333.1496
333.14909
333.1479
333.1449
333.13689
333.11924
333.08887
333.15
333.15
333.15
333.14999
333.14999
333.14997
333.14992
333.1498
333.14954
333.14898
333.14767
333.14437
333.13579
333.11785
333.08767
333.15
333.15
333.15
333.14999
333.14998
333.14996
333.1499
333.14977
333.14949
333.14886
333.14742
333.14379
333.13465
333.11652
333.08657
333.15
333.15
333.15
333.14999
333.14998
333.14995
333.14989
333.14974
333.14942
333.14873
333.14715
333.14318
333.1335
333.11525
333.08558
333.15
333.15
333.14999
333.14999
333.14998
333.14994
333.14987
333.14971
333.14935
333.1486
333.14686
333.14252
333.13234
333.11404
333.08467
333.15
333.15
333.14999
333.14999
333.14997
333.14993
333.14985
333.14967
333.14928
333.14845
333.14654
333.14182
333.13118
333.11289
333.08384
333.15
333.15
333.14999
333.14998
333.14997
333.14992
333.14983
333.14963
333.1492
333.14829
333.1462
333.14107
333.13002
333.11181
333.08308
333.15
333.15
333.14999
333.14998
333.14996
333.14991
333.14981
333.14958
333.14912
333.14812
333.14582
333.14029
333.12888
333.11078
333.08238
333.15
333.14999
333.14999
333.14998
333.14995
333.1499
333.14978
333.14954
333.14903
333.14794
333.14542
333.13948
333.12776
333.10981
333.08174
333.15
333.14999
333.14999
333.14998
333.14995
333.14989
333.14976
333.14949
333.14893
333.14774
333.14498
333.13863
333.12667
333.10889
333.08116
333.14999
333.14999
333.14999
333.14997
333.14994
333.14987
333.14973
333.14944
333.14883
333.14752
333.14451
333.13776
333.12562
333.10802
333.08061
333.14999
333.14999
333.14998
333.14997
333.14993
333.14986
333.1497
333.14938
333.14872
333.14729
333.14401
333.13688
333.12459
333.1072
333.08011
333.14999
333.14999
333.14998
333.14996
333.14992
333.14984
333.14967
333.14932
333.1486
333.14703
333.14347
333.13598
333.12361
333.10641
333.07964
333.14999
333.14999
333.14998
333.14996
333.14991
333.14982
333.14963
333.14925
333.14846
333.14676
333.14289
333.13508
333.12266
333.10567
333.0792
333.14999
333.14999
333.14998
333.14995
333.1499
333.1498
333.14959
333.14918
333.14832
333.14646
333.14229
333.13418
333.12175
333.10497
333.07879
333.14999
333.14998
333.14997
333.14995
333.14989
333.14978
333.14955
333.1491
333.14817
333.14613
333.14166
333.13328
333.12087
333.1043
333.0784
333.14999
333.14998
333.14997
333.14994
333.14988
333.14976
333.14951
333.14902
333.148
333.14578
333.141
333.1324
333.12003
333.10366
333.07803
333.14999
333.14998
333.14997
333.14993
333.14987
333.14973
333.14946
333.14893
333.14782
333.1454
333.14032
333.13153
333.11922
333.10305
333.07768
333.14998
333.14998
333.14996
333.14993
333.14985
333.14971
333.14941
333.14883
333.14762
333.14499
333.13962
333.13068
333.11845
333.10246
333.07735
333.14998
333.14997
333.14996
333.14992
333.14984
333.14968
333.14936
333.14873
333.14741
333.14456
333.1389
333.12985
333.1177
333.1019
333.07703
333.14998
333.14997
333.14995
333.14991
333.14982
333.14965
333.1493
333.14861
333.14717
333.14409
333.13818
333.12904
333.11699
333.10137
333.07673
333.14998
333.14997
333.14995
333.1499
333.1498
333.14961
333.14924
333.14849
333.14692
333.14361
333.13746
333.12825
333.1163
333.10085
333.07644
333.14997
333.14996
333.14994
333.14989
333.14978
333.14958
333.14917
333.14836
333.14665
333.1431
333.13673
333.12748
333.11564
333.10036
333.07616
333.14997
333.14996
333.14993
333.14988
333.14976
333.14954
333.1491
333.14821
333.14635
333.14256
333.136
333.12674
333.115
333.09988
333.07589
333.14997
333.14996
333.14993
333.14986
333.14974
333.14949
333.14902
333.14805
333.14603
333.14201
333.13528
333.12601
333.11439
333.09943
333.07564
333.14996
333.14995
333.14992
333.14985
333.14971
333.14945
333.14893
333.14788
333.14569
333.14144
333.13457
333.12531
333.11379
333.09899
333.07539
333.14996
333.14995
333.14991
333.14983
333.14969
333.1494
333.14884
333.14769
333.14533
333.14086
333.13386
333.12463
333.11322
333.09856
333.07515
333.14995
333.14994
333.1499
333.14982
333.14966
333.14935
333.14873
333.14749
333.14494
333.14026
333.13317
333.12397
333.11267
333.09815
333.07491
333.14995
333.14993
333.14989
333.1498
333.14963
333.14929
333.14862
333.14727
333.14454
333.13966
333.13248
333.12333
333.11213
333.09775
333.07469
333.14994
333.14993
333.14988
333.14978
333.14959
333.14923
333.1485
333.14703
333.14411
333.13905
333.13181
333.1227
333.11161
333.09736
333.07447
333.14994
333.14992
333.14987
333.14976
333.14956
333.14916
333.14837
333.14678
333.14367
333.13844
333.13116
333.1221
333.11111
333.09699
333.07425
333.14993
333.14991
333.14985
333.14974
333.14952
333.14909
333.14823
333.14651
333.1432
333.13783
333.13051
333.12151
333.11063
333.09662
333.07404
333.14992
333.1499
333.14984
333.14972
333.14948
333.14901
333.14808
333.14621
333.14272
333.13722
333.12988
333.12094
333.11015
333.09627
333.07384
333.14992
333.14989
333.14983
333.14969
333.14943
333.14892
333.14791
333.1459
333.14223
333.13661
333.12926
333.12038
333.10969
333.09593
333.07364
333.14991
333.14988
333.14981
333.14966
333.14938
333.14883
333.14773
333.14557
333.14173
333.13601
333.12866
333.11984
333.10925
333.09559
333.07345
333.1499
333.14987
333.14979
333.14963
333.14933
333.14873
333.14754
333.14522
333.14122
333.13541
333.12807
333.11931
333.10881
333.09527
333.07326
333.14989
333.14986
333.14977
333.1496
333.14927
333.14862
333.14733
333.14486
333.1407
333.13482
333.12749
333.1188
333.10839
333.09495
333.07308
333.14988
333.14984
333.14975
333.14957
333.14921
333.1485
333.1471
333.14447
333.14017
333.13424
333.12692
333.1183
333.10798
333.09464
333.0729
333.14987
333.14983
333.14973
333.14953
333.14914
333.14837
333.14686
333.14407
333.13964
333.13366
333.12637
333.11781
333.10758
333.09434
333.07272
333.14986
333.14982
333.14971
333.14949
333.14906
333.14823
333.1466
333.14366
333.13911
333.13309
333.12583
333.11734
333.10719
333.09404
333.07255
333.14984
333.1498
333.14968
333.14944
333.14898
333.14807
333.14632
333.14323
333.13858
333.13253
333.1253
333.11687
333.1068
333.09375
333.07238
333.14983
333.14978
333.14965
333.1494
333.14889
333.14791
333.14603
333.1428
333.13805
333.13198
333.12478
333.11642
333.10643
333.09347
333.07221
333.14981
333.14976
333.14962
333.14934
333.1488
333.14773
333.14572
333.14235
333.13751
333.13144
333.12428
333.11597
333.10607
333.09319
333.07205
333.1498
333.14974
333.14959
333.14928
333.14869
333.14754
333.1454
333.14189
333.13699
333.1309
333.12378
333.11554
333.10571
333.09292
333.07189
333.14978
333.14972
333.14955
333.14922
333.14858
333.14733
333.14506
333.14143
333.13646
333.13038
333.1233
333.11512
333.10536
333.09266
333.07173
333.14976
333.14969
333.14951
333.14915
333.14845
333.14711
333.14471
333.14096
333.13594
333.12986
333.12282
333.1147
333.10502
333.0924
333.07157
333.14974
333.14966
333.14947
333.14908
333.14832
333.14688
333.14434
333.14049
333.13542
333.12935
333.12235
333.1143
333.10468
333.09214
333.07142
333.14971
333.14963
333.14942
333.149
333.14818
333.14662
333.14396
333.14001
333.13491
333.12885
333.1219
333.1139
333.10435
333.09189
333.07127
333.14969
333.1496
333.14937
333.14891
333.14802
333.14636
333.14357
333.13953
333.1344
333.12836
333.12145
333.11351
333.10403
333.09164
333.07112
333.14966
333.14957
333.14932
333.14882
333.14785
333.14608
333.14317
333.13905
333.1339
333.12787
333.12101
333.11313
333.10371
333.0914
333.07097
333.14963
333.14953
333.14926
333.14871
333.14767
333.14578
333.14276
333.13857
333.1334
333.1274
333.12058
333.11275
333.1034
333.09116
333.07082
333.1496
333.14948
333.14919
333.1486
333.14747
333.14547
333.14234
333.13809
333.13291
333.12693
333.12015
333.11238
333.1031
333.09092
333.07067
333.14956
333.14944
333.14912
333.14848
333.14726
333.14515
333.14191
333.13762
333.13243
333.12647
333.11974
333.11202
333.1028
333.09069
333.07053
333.14952
333.14939
333.14904
333.14835
333.14704
333.14481
333.14148
333.13714
333.13195
333.12602
333.11933
333.11167
333.1025
333.09046
333.07039
333.14948
333.14933
333.14896
333.1482
333.1468
333.14446
333.14105
333.13666
333.13148
333.12557
333.11893
333.11132
333.10221
333.09024
333.07025
333.14943
333.14927
333.14886
333.14805
333.14655
333.1441
333.14061
333.13619
333.13101
333.12514
333.11853
333.11098
333.10193
333.09002
333.07011
333.14938
333.14921
333.14876
333.14788
333.14629
333.14373
333.14017
333.13572
333.13055
333.1247
333.11814
333.11064
333.10165
333.0898
333.06997
333.14932
333.14913
333.14865
333.1477
333.14601
333.14335
333.13972
333.13526
333.13009
333.12428
333.11776
333.11031
333.10137
333.08958
333.06983
333.14926
333.14905
333.14853
333.1475
333.14571
333.14297
333.13928
333.13479
333.12964
333.12386
333.11738
333.10998
333.1011
333.08937
333.06969
333.14919
333.14897
333.1484
333.1473
333.14541
333.14257
333.13883
333.13434
333.1292
333.12345
333.11701
333.10966
333.10083
333.08916
333.06955
333.14911
333.14887
333.14826
333.14708
333.14509
333.14217
333.13839
333.13388
333.12876
333.12304
333.11665
333.10934
333.10056
333.08895
333.06942
333.14903
333.14877
333.1481
333.14684
333.14476
333.14176
333.13794
333.13343
333.12833
333.12264
333.11629
333.10903
333.1003
333.08874
333.06928
333.14894
333.14866
333.14794
333.14659
333.14441
333.14135
333.13749
333.13298
333.1279
333.12225
333.11594
333.10872
333.10004
333.08854
333.06915
333.14884
333.14853
333.14776
333.14633
333.14406
333.14093
333.13705
333.13254
333.12747
333.12186
333.11559
333.10842
333.09979
333.08833
333.06901
333.14873
333.1484
333.14756
333.14605
333.1437
333.14051
333.13661
333.1321
333.12706
333.12147
333.11524
333.10812
333.09954
333.08813
333.06888
333.14861
333.14825
333.14735
333.14576
333.14333
333.14009
333.13617
333.13166
333.12664
333.12109
333.11491
333.10782
333.09929
333.08793
333.06874
333.14848
333.14809
333.14713
333.14545
333.14295
333.13967
333.13573
333.13123
333.12624
333.12072
333.11457
333.10753
333.09904
333.08774
333.06861
333.14833
333.14791
333.14689
333.14513
333.14256
333.13924
333.13529
333.1308
333.12583
333.12035
333.11424
333.10724
333.0988
333.08754
333.06847
333.14817
333.14772
333.14664
333.1448
333.14217
333.13881
333.13485
333.13038
333.12544
333.11999
333.11391
333.10696
333.09855
333.08734
333.06834
333.148
333.14752
333.14637
333.14446
333.14177
333.13838
333.13442
333.12996
333.12504
333.11963
333.11359
333.10668
333.09831
333.08715
333.0682
333.14781
333.14729
333.14609
333.1441
333.14136
333.13795
333.13399
333.12954
333.12465
333.11927
333.11327
333.1064
333.09808
333.08696
333.06807
333.1476
333.14706
333.14579
333.14374
333.14095
333.13752
333.13356
333.12913
333.12427
333.11892
333.11296
333.10612
333.09784
333.08677
333.06794
333.14737
333.1468
333.14547
333.14337
333.14053
333.13709
333.13313
333.12872
333.12389
333.11857
333.11265
333.10585
333.09761
333.08658
333.0678
333.14713
333.14652
333.14514
333.14298
333.14011
333.13666
333.1327
333.12832
333.12351
333.11823
333.11234
333.10558
333.09738
333.08639
333.06767
333.14686
333.14623
333.1448
333.14259
333.13969
333.13622
333.13228
333.12792
333.12314
333.11789
333.11204
333.10531
333.09715
333.0862
333.06753
333.14658
333.14592
333.14444
333.14219
333.13927
333.13579
333.13186
333.12752
333.12277
333.11755
333.11174
333.10505
333.09692
333.08602
333.0674
333.14627
333.14559
333.14407
333.14178
333.13884
333.13536
333.13145
333.12713
333.12241
333.11722
333.11144
333.10479
333.0967
333.08583
333.06726
333.14595
333.14524
333.14368
333.14136
333.13841
333.13494
333.13103
333.12674
333.12204
333.11689
333.11114
333.10453
333.09647
333.08565
333.06713
333.1456
333.14487
333.14328
333.14094
333.13797
333.13451
333.13062
333.12635
333.12169
333.11657
333.11085
333.10427
333.09625
333.08546
333.06699
333.14523
333.14449
333.14287
333.14051
333.13754
333.13408
333.13021
333.12597
333.12133
333.11624
333.11056
333.10401
333.09603
333.08528
333.06685
333.14485
333.14409
333.14245
333.14007
333.1371
333.13365
333.12981
333.12559
333.12098
333.11592
333.11027
333.10376
333.09581
333.08509
333.06672
333.14444
333.14367
333.14202
333.13963
333.13666
333.13323
333.1294
333.12521
333.12063
333.11561
333.10999
333.1035
333.09559
333.08491
333.06658
333.14401
333.14324
333.14157
333.13919
333.13622
333.13281
333.129
333.12483
333.12029
333.11529
333.10971
333.10325
333.09537
333.08473
333.06644
333.14357
333.14279
333.14112
333.13873
333.13578
333.13238
333.1286
333.12446
333.11994
333.11498
333.10942
333.103
333.09516
333.08455
333.0663
333.14311
333.14233
333.14066
333.13828
333.13534
333.13196
333.1282
333.12409
333.1196
333.11467
333.10915
333.10276
333.09494
333.08436
333.06616
333.14264
333.14185
333.14019
333.13782
333.1349
333.13154
333.12781
333.12372
333.11926
333.11436
333.10887
333.10251
333.09473
333.08418
333.06602
333.14215
333.14137
333.13971
333.13736
333.13445
333.13112
333.12741
333.12336
333.11893
333.11406
333.10859
333.10227
333.09451
333.084
333.06588
333.14165
333.14087
333.13923
333.13689
333.13401
333.1307
333.12702
333.12299
333.1186
333.11375
333.10832
333.10202
333.0943
333.08382
333.06574
333.14113
333.14037
333.13874
333.13642
333.13356
333.13028
333.12663
333.12263
333.11826
333.11345
333.10805
333.10178
333.09409
333.08364
333.0656
333.14061
333.13985
333.13824
333.13595
333.13312
333.12986
333.12624
333.12227
333.11793
333.11315
333.10778
333.10154
333.09387
333.08345
333.06545
333.14008
333.13933
333.13774
333.13547
333.13267
333.12944
333.12585
333.12192
333.11761
333.11285
333.10751
333.1013
333.09366
333.08327
333.06531
333.13954
333.1388
333.13724
333.135
333.13222
333.12903
333.12547
333.12156
333.11728
333.11256
333.10724
333.10106
333.09345
333.08309
333.06516
333.139
333.13827
333.13673
333.13452
333.13178
333.12861
333.12508
333.12121
333.11696
333.11226
333.10697
333.10082
333.09324
333.08291
333.06502
333.13845
333.13774
333.13621
333.13403
333.13133
333.1282
333.1247
333.12085
333.11663
333.11197
333.10671
333.10058
333.09303
333.08272
333.06487
333.1379
333.1372
333.1357
333.13355
333.13088
333.12778
333.12432
333.1205
333.11631
333.11167
333.10644
333.10034
333.09282
333.08254
333.06472
333.13734
333.13665
333.13518
333.13307
333.13043
333.12737
333.12393
333.12015
333.11599
333.11138
333.10618
333.10011
333.09261
333.08236
333.06457
333.13678
333.13611
333.13467
333.13258
333.12998
333.12695
333.12355
333.1198
333.11567
333.11109
333.10592
333.09987
333.0924
333.08217
333.06442
333.13623
333.13556
333.13415
333.1321
333.12953
333.12654
333.12317
333.11945
333.11535
333.1108
333.10565
333.09963
333.09218
333.08199
333.06427
333.13567
333.13502
333.13363
333.13162
333.12909
333.12613
333.1228
333.11911
333.11504
333.11051
333.10539
333.0994
333.09197
333.0818
333.06411
333.13511
333.13447
333.13311
333.13113
333.12864
333.12572
333.12242
333.11876
333.11472
333.11023
333.10513
333.09916
333.09176
333.08162
333.06396
333.13455
333.13393
333.13259
333.13065
333.12819
333.1253
333.12204
333.11842
333.11441
333.10994
333.10487
333.09892
333.09155
333.08143
333.0638
333.134
333.13339
333.13208
333.13016
333.12774
333.12489
333.12166
333.11807
333.11409
333.10965
333.10461
333.09869
333.09134
333.08124
333.06364
333.13344
333.13285
333.13156
333.12968
333.1273
333.12448
333.12129
333.11773
333.11378
333.10936
333.10435
333.09845
333.09113
333.08105
333.06348
333.13289
333.13231
333.13105
333.1292
333.12685
333.12407
333.12091
333.11738
333.11346
333.10908
333.10409
333.09822
333.09091
333.08086
333.06332
333.13234
333.13177
333.13053
333.12872
333.12641
333.12367
333.12054
333.11704
333.11315
333.10879
333.10383
333.09798
333.0907
333.08067
333.06315
333.1318
333.13124
333.13002
333.12824
333.12597
333.12326
333.12017
333.1167
333.11284
333.10851
333.10357
333.09774
333.09048
333.08048
333.06299
333.13126
333.13071
333.12952
333.12777
333.12553
333.12285
333.11979
333.11636
333.11252
333.10822
333.10331
333.09751
333.09027
333.08029
333.06282
333.13072
333.13018
333.12901
333.12729
333.12509
333.12245
333.11942
333.11602
333.11221
333.10794
333.10304
333.09727
333.09005
333.08009
333.06265
333.13018
333.12966
333.12851
333.12682
333.12465
333.12204
333.11905
333.11568
333.1119
333.10765
333.10278
333.09703
333.08984
333.0799
333.06248
333.12965
333.12914
333.12801
333.12635
333.12421
333.12164
333.11868
333.11534
333.11159
333.10737
333.10252
333.09679
333.08962
333.0797
333.06231
333.12913
333.12862
333.12752
333.12589
333.12378
333.12124
333.11831
333.115
333.11128
333.10708
333.10226
333.09655
333.0894
333.0795
333.06213
333.1286
333.12811
333.12703
333.12542
333.12335
333.12084
333.11794
333.11466
333.11097
333.1068
333.102
333.09631
333.08918
333.0793
333.06196
333.12809
333.1276
333.12654
333.12496
333.12291
333.12044
333.11758
333.11432
333.11066
333.10651
333.10174
333.09607
333.08896
333.0791
333.06178
333.12758
333.1271
333.12605
333.1245
333.12249
333.12005
333.11721
333.11399
333.11035
333.10622
333.10148
333.09583
333.08874
333.0789
333.06159
333.12707
333.1266
333.12557
333.12405
333.12206
333.11965
333.11684
333.11365
333.11004
333.10594
333.10121
333.09559
333.08852
333.07869
333.06141
333.12656
333.1261
333.1251
333.1236
333.12164
333.11926
333.11648
333.11331
333.10973
333.10565
333.10095
333.09535
333.08829
333.07849
333.06122
333.12607
333.12561
333.12462
333.12315
333.12122
333.11886
333.11612
333.11298
333.10942
333.10537
333.10069
333.0951
333.08807
333.07828
333.06104
333.12557
333.12513
333.12416
333.1227
333.1208
333.11847
333.11576
333.11264
333.10911
333.10508
333.10042
333.09486
333.08784
333.07807
333.06084
333.12508
333.12465
333.12369
333.12226
333.12038
333.11809
333.11539
333.11231
333.1088
333.1048
333.10016
333.09461
333.08761
333.07786
333.06065
333.1246
333.12417
333.12323
333.12182
333.11997
333.1177
333.11504
333.11198
333.10849
333.10451
333.09989
333.09436
333.08738
333.07764
333.06046
333.12412
333.1237
333.12277
333.12138
333.11955
333.11731
333.11468
333.11164
333.10818
333.10422
333.09963
333.09412
333.08715
333.07743
333.06026
333.12364
333.12323
333.12232
333.12095
333.11915
333.11693
333.11432
333.11131
333.10788
333.10394
333.09936
333.09387
333.08692
333.07721
333.06006
333.12317
333.12277
333.12187
333.12052
333.11874
333.11655
333.11396
333.11098
333.10757
333.10365
333.09909
333.09362
333.08669
333.07699
333.05985
333.12271
333.12231
333.12142
333.12009
333.11833
333.11617
333.11361
333.11065
333.10726
333.10336
333.09882
333.09337
333.08645
333.07677
333.05965
333.12225
333.12185
333.12098
333.11967
333.11793
333.11579
333.11326
333.11032
333.10695
333.10308
333.09856
333.09312
333.08621
333.07655
333.05944
333.12179
333.1214
333.12054
333.11925
333.11754
333.11542
333.1129
333.10999
333.10664
333.10279
333.09829
333.09286
333.08598
333.07632
333.05923
333.12134
333.12096
333.12011
333.11883
333.11714
333.11504
333.11255
333.10966
333.10634
333.1025
333.09802
333.09261
333.08574
333.0761
333.05902
333.12089
333.12051
333.11968
333.11842
333.11675
333.11467
333.1122
333.10934
333.10603
333.10222
333.09775
333.09236
333.0855
333.07587
333.0588
333.12045
333.12008
333.11925
333.11801
333.11635
333.1143
333.11186
333.10901
333.10572
333.10193
333.09748
333.0921
333.08525
333.07564
333.05858
333.12001
333.11964
333.11883
333.1176
333.11597
333.11393
333.11151
333.10868
333.10542
333.10164
333.09721
333.09184
333.08501
333.07541
333.05836
333.11958
333.11922
333.11841
333.1172
333.11558
333.11357
333.11117
333.10836
333.10511
333.10135
333.09693
333.09159
333.08476
333.07517
333.05814
333.11915
333.11879
333.118
333.1168
333.1152
333.11321
333.11082
333.10803
333.10481
333.10106
333.09666
333.09133
333.08452
333.07494
333.05792
333.11872
333.11837
333.11759
333.1164
333.11482
333.11284
333.11048
333.10771
333.1045
333.10078
333.09639
333.09107
333.08427
333.0747
333.05769
333.1183
333.11795
333.11718
333.11601
333.11444
333.11248
333.11014
333.10739
333.1042
333.10049
333.09611
333.09081
333.08402
333.07446
333.05746
333.11789
333.11754
333.11678
333.11561
333.11406
333.11213
333.1098
333.10707
333.10389
333.1002
333.09584
333.09054
333.08377
333.07422
333.05723
333.11747
333.11713
333.11637
333.11523
333.11369
333.11177
333.10946
333.10675
333.10359
333.09991
333.09556
333.09028
333.08352
333.07397
333.057
333.11706
333.11672
333.11598
333.11484
333.11332
333.11142
333.10912
333.10643
333.10328
333.09962
333.09529
333.09002
333.08326
333.07373
333.05676
333.11666
333.11632
333.11558
333.11446
333.11295
333.11106
333.10879
333.10611
333.10298
333.09933
333.09501
333.08975
333.08301
333.07348
333.05652
333.11625
333.11592
333.11519
333.11408
333.11259
333.11071
333.10845
333.10579
333.10268
333.09904
333.09473
333.08949
333.08275
333.07323
333.05628
333.11585
333.11553
333.1148
333.1137
333.11222
333.11036
333.10812
333.10547
333.10237
333.09875
333.09446
333.08922
333.08249
333.07298
333.05604
333.11546
333.11513
333.11442
333.11333
333.11186
333.11002
333.10779
333.10515
333.10207
333.09846
333.09418
333.08895
333.08223
333.07273
333.0558
333.11507
333.11475
333.11404
333.11296
333.1115
333.10967
333.10746
333.10484
333.10177
333.09817
333.0939
333.08868
333.08197
333.07248
333.05555
333.11468
333.11436
333.11366
333.11259
333.11114
333.10933
333.10713
333.10452
333.10147
333.09788
333.09362
333.08841
333.08171
333.07222
333.0553
333.11429
333.11398
333.11328
333.11222
333.11079
333.10898
333.1068
333.10421
333.10116
333.09759
333.09334
333.08814
333.08145
333.07197
333.05505
333.11391
333.1136
333.11291
333.11186
333.11044
333.10864
333.10647
333.10389
333.10086
333.0973
333.09306
333.08787
333.08118
333.07171
333.0548
333.11353
333.11322
333.11254
333.11149
333.11008
333.10831
333.10614
333.10358
333.10056
333.09701
333.09278
333.0876
333.08092
333.07145
333.05455
333.11316
333.11285
333.11217
333.11113
333.10974
333.10797
333.10582
333.10326
333.10026
333.09672
333.0925
333.08732
333.08065
333.07119
333.05429
333.11278
333.11248
333.11181
333.11078
333.10939
333.10763
333.1055
333.10295
333.09996
333.09643
333.09222
333.08705
333.08038
333.07093
333.05403
333.11241
333.11211
333.11144
333.11042
333.10904
333.1073
333.10517
333.10264
333.09966
333.09614
333.09193
333.08678
333.08011
333.07066
333.05378
333.11205
333.11175
333.11108
333.11007
333.1087
333.10697
333.10485
333.10233
333.09936
333.09585
333.09165
333.0865
333.07984
333.0704
333.05352
333.11168
333.11138
333.11073
333.10972
333.10836
333.10663
333.10453
333.10202
333.09906
333.09555
333.09137
333.08622
333.07957
333.07013
333.05325
333.11132
333.11102
333.11037
333.10937
333.10802
333.1063
333.10421
333.10171
333.09876
333.09526
333.09108
333.08595
333.0793
333.06987
333.05299
333.11096
333.11067
333.11002
333.10903
333.10768
333.10598
333.10389
333.1014
333.09846
333.09497
333.0908
333.08567
333.07903
333.0696
333.05273
333.1106
333.11031
333.10967
333.10868
333.10735
333.10565
333.10357
333.10109
333.09816
333.09468
333.09051
333.08539
333.07875
333.06933
333.05246
333.11025
333.10996
333.10932
333.10834
333.10701
333.10532
333.10326
333.10078
333.09786
333.09439
333.09023
333.08511
333.07848
333.06906
333.05219
333.1099
333.10961
333.10898
333.108
333.10668
333.105
333.10294
333.10048
333.09756
333.0941
333.08994
333.08483
333.0782
333.06878
333.05192
333.10955
333.10926
333.10863
333.10766
333.10635
333.10467
333.10263
333.10017
333.09726
333.0938
333.08966
333.08455
333.07793
333.06851
333.05165
333.1092
333.10892
333.10829
333.10733
333.10602
333.10435
333.10231
333.09986
333.09696
333.09351
333.08937
333.08426
333.07765
333.06823
333.05138
333.10886
333.10857
333.10795
333.10699
333.10569
333.10403
333.102
333.09956
333.09666
333.09322
333.08908
333.08398
333.07737
333.06796
333.05111
333.10851
333.10823
333.10761
333.10666
333.10536
333.10371
333.10168
333.09925
333.09636
333.09293
333.0888
333.0837
333.07709
333.06768
333.05084
333.10817
333.10789
333.10728
333.10633
333.10504
333.10339
333.10137
333.09895
333.09606
333.09263
333.08851
333.08342
333.07681
333.06741
333.05056
333.10783
333.10756
333.10694
333.106
333.10471
333.10307
333.10106
333.09864
333.09576
333.09234
333.08822
333.08313
333.07653
333.06713
333.05029
333.1075
333.10722
333.10661
333.10567
333.10439
333.10276
333.10075
333.09834
333.09546
333.09205
333.08793
333.08285
333.07625
333.06685
333.05001
333.10716
333.10689
333.10628
333.10534
333.10407
333.10244
333.10044
333.09803
333.09517
333.09175
333.08764
333.08256
333.07596
333.06657
333.04973
333.10683
333.10656
333.10595
333.10502
333.10375
333.10213
333.10013
333.09773
333.09487
333.09146
333.08735
333.08227
333.07568
333.06629
333.04945
333.1065
333.10623
333.10562
333.10469
333.10343
333.10181
333.09982
333.09743
333.09457
333.09117
333.08706
333.08199
333.0754
333.06601
333.04917
333.10617
333.1059
333.1053
333.10437
333.10311
333.1015
333.09952
333.09712
333.09427
333.09087
333.08677
333.0817
333.07511
333.06572
333.04889
333.10584
333.10557
333.10497
333.10405
333.10279
333.10119
333.09921
333.09682
333.09397
333.09058
333.08648
333.08141
333.07483
333.06544
333.04861
333.10551
333.10524
333.10465
333.10373
333.10248
333.10088
333.0989
333.09652
333.09368
333.09028
333.08619
333.08113
333.07454
333.06516
333.04833
333.10519
333.10492
333.10433
333.10341
333.10216
333.10057
333.0986
333.09622
333.09338
333.08999
333.0859
333.08084
333.07425
333.06487
333.04805
333.10486
333.1046
333.10401
333.10309
333.10185
333.10026
333.09829
333.09592
333.09308
333.0897
333.08561
333.08055
333.07397
333.06459
333.04776
333.10454
333.10428
333.10369
333.10278
333.10154
333.09995
333.09799
333.09562
333.09278
333.0894
333.08532
333.08026
333.07368
333.0643
333.04748
333.10422
333.10396
333.10337
333.10246
333.10123
333.09964
333.09768
333.09531
333.09249
333.08911
333.08503
333.07997
333.07339
333.06401
333.04719
333.1039
333.10364
333.10305
333.10215
333.10091
333.09933
333.09738
333.09501
333.09219
333.08881
333.08473
333.07968
333.0731
333.06373
333.04691
333.10358
333.10332
333.10274
333.10184
333.1006
333.09902
333.09707
333.09471
333.09189
333.08852
333.08444
333.07939
333.07281
333.06344
333.04662
333.10327
333.103
333.10242
333.10152
333.10029
333.09872
333.09677
333.09441
333.09159
333.08822
333.08415
333.0791
333.07253
333.06315
333.04633
333.10295
333.10269
333.10211
333.10121
333.09999
333.09841
333.09647
333.09411
333.0913
333.08793
333.08386
333.07881
333.07224
333.06286
333.04605
333.10264
333.10238
333.1018
333.1009
333.09968
333.09811
333.09616
333.09381
333.091
333.08763
333.08356
333.07851
333.07194
333.06257
333.04576
333.10232
333.10206
333.10148
333.10059
333.09937
333.0978
333.09586
333.09351
333.0907
333.08734
333.08327
333.07822
333.07165
333.06228
333.04547
333.10201
333.10175
333.10117
333.10028
333.09906
333.0975
333.09556
333.09321
333.09041
333.08704
333.08297
333.07793
333.07136
333.06199