/*--------------------------------*- C++ -*----------------------------------*\
| =========                 |                                                 |
| \\      /  F ield         | OpenFOAM: The Open Source CFD Toolbox           |
|  \\    /   O peration     | Version:  2506                                  |
|   \\  /    A nd           | Website:  www.openfoam.com                      |
|    \\/     M anipulation  |                                                 |
\*---------------------------------------------------------------------------*/
FoamFile
{
    version     2.0;
    format      ascii;
    arch        "LSB;label=32;scalar=64";
    class       volVectorField;
    location    "5000/water";
    object      U;
}
// * * * * * * * * * * * * * * * * * * * * * * * * * * * * * * * * * * * * * //

dimensions      [0 1 -1 0 0 0 0];

internalField   nonuniform List<vector> 
6000
(
(0.25028648 -3.4193492e-05 8.9025332e-19)
(0.25028875 -7.4648812e-05 -5.0922624e-18)
(0.25029344 -0.00011804414 -1.1368962e-18)
(0.25030059 -0.00016540046 -2.9625645e-19)
(0.25031046 -0.00021487336 3.1758074e-19)
(0.25032332 -0.00026685039 3.8018787e-19)
(0.25033948 -0.00032192175 -1.1913708e-19)
(0.25035939 -0.00038078672 -1.0458247e-19)
(0.25038356 -0.00044434477 -1.550093e-19)
(0.25041254 -0.00051362452 6.2825847e-20)
(0.25044587 -0.0005867756 -8.3884992e-20)
(0.25047643 -0.00065822056 -1.0593142e-20)
(0.25046276 -0.00078466513 1.7814169e-19)
(0.25013031 -0.0015987837 8.4323541e-20)
(0.24584996 0.0019968142 1.0240836e-19)
(0.25104035 -3.7261304e-05 2.2406486e-18)
(0.25104514 -8.9895979e-05 -2.9466382e-18)
(0.2510558 -0.00014352114 -1.3506214e-18)
(0.25107219 -0.00020025424 -7.0032991e-19)
(0.2510947 -0.0002571822 8.6927632e-19)
(0.25112368 -0.00031440571 5.7166764e-19)
(0.25115965 -0.00037188242 -3.6457586e-19)
(0.25120324 -0.00042947839 -3.7595237e-19)
(0.2512551 -0.00048709454 -3.3478982e-19)
(0.25131538 -0.00054561245 1.8471393e-19)
(0.25138039 -0.00060405492 -1.645553e-19)
(0.25142587 -0.00063755821 -1.1729768e-19)
(0.25133175 -0.00059164843 1.7916269e-19)
(0.25037931 -0.0014370973 8.3627777e-20)
(0.24194277 0.00099520264 1.3453394e-19)
(0.25195051 -3.6589029e-05 -2.4546725e-18)
(0.25195563 -9.0250613e-05 4.7481481e-18)
(0.25196731 -0.00014313025 1.4212213e-18)
(0.25198528 -0.00019912656 -1.3245239e-18)
(0.25200977 -0.00025508716 4.3644892e-19)
(0.25204101 -0.0003112558 -3.0105067e-19)
(0.25207932 -0.00036762123 -1.212141e-18)
(0.25212505 -0.00042413945 -1.224983e-18)
(0.25217823 -0.00048056787 -7.95143e-19)
(0.25223708 -0.0005377572 1.0890955e-19)
(0.25229114 -0.00060007155 -5.0021975e-19)
(0.25229033 -0.00065419843 -5.1699179e-19)
(0.25200573 -0.00054460881 -1.7741671e-19)
(0.25014357 -0.0012195308 -1.6582422e-19)
(0.23758495 0.00043820543 -5.9746412e-20)
(0.25283353 -3.7446604e-05 2.3873922e-19)
(0.25283867 -9.3611088e-05 8.5346404e-19)
(0.25285018 -0.00014906892 1.6880676e-18)
(0.25286783 -0.00020791578 -1.6614595e-19)
(0.25289182 -0.00026672308 6.3435887e-19)
(0.25292238 -0.00032582165 -7.441101e-20)
(0.25295982 -0.00038519269 -7.4434806e-19)
(0.25300432 -0.00044485276 -8.0680905e-19)
(0.25305525 -0.00050441426 -2.516727e-19)
(0.25310809 -0.00056332944 3.9720005e-19)
(0.25314261 -0.00062607506 -3.9324337e-19)
(0.25307635 -0.00069910336 -2.6034013e-19)
(0.25255493 -0.0005845712 -5.8094885e-20)
(0.24963188 -0.001063787 -1.7554822e-19)
(0.23320285 0.0001058672 -1.2641076e-19)
(0.25372643 -3.8342944e-05 1.1807053e-17)
(0.2537317 -9.6368691e-05 2.0011877e-18)
(0.25374347 -0.00015372841 1.8799052e-18)
(0.25376156 -0.00021453144 7.7999343e-19)
(0.25378616 -0.00027516439 3.9862421e-19)
(0.25381749 -0.00033599427 4.876768e-19)
(0.25385581 -0.00039694563 4.4667243e-19)
(0.25390101 -0.00045805575 2.0718933e-19)
(0.25395133 -0.00051907431 5.833323e-19)
(0.25399821 -0.00057855465 4.8719929e-20)
(0.25400834 -0.00063773998 7.7150933e-20)
(0.25386022 -0.0007177221 2.2129164e-19)
(0.25305737 -0.00062191547 1.5442262e-19)
(0.24895451 -0.00093835859 -2.4222444e-20)
(0.22897365 -8.3792338e-05 6.0436205e-21)
(0.25464474 -3.866162e-05 -1.6429205e-23)
(0.25465014 -9.7320119e-05 -4.6081556e-19)
(0.2546622 -0.00015516462 5.9643896e-19)
(0.25468073 -0.00021648308 2.9718827e-19)
(0.2547059 -0.00027758564 -7.0945982e-19)
(0.25473792 -0.000338881 -8.4267016e-20)
(0.25477689 -0.00040025681 3.8152132e-19)
(0.25482222 -0.000461728 2.9794015e-19)
(0.25487049 -0.00052322808 1.3780956e-19)
(0.2549078 -0.000583188 -1.6952138e-19)
(0.25488519 -0.00063896641 9.1845729e-20)
(0.25463685 -0.00071821651 6.1091295e-20)
(0.25350729 -0.0006469875 2.9602829e-20)
(0.248129 -0.00083894719 7.5489453e-20)
(0.2249409 -0.00018589273 1.5259264e-20)
(0.25557031 -3.8595293e-05 -5.3856756e-18)
(0.25557581 -9.7309346e-05 -3.6110156e-18)
(0.25558805 -0.00015511983 -1.139028e-18)
(0.25560682 -0.00021642526 2.6932328e-20)
(0.2556323 -0.00027749359 -1.3095851e-18)
(0.25566463 -0.00033876345 -3.4746964e-20)
(0.25570371 -0.00040009734 2.2232834e-21)
(0.25574825 -0.00046144626 1.8526684e-19)
(0.25579256 -0.00052279714 -1.2656642e-19)
(0.25581623 -0.0005828814 1.4079896e-19)
(0.25575267 -0.00063600478 1.6588474e-19)
(0.25538743 -0.00071016267 1.0081358e-19)
(0.25388915 -0.00066107344 9.7120581e-20)
(0.24716598 -0.00076077854 1.2906252e-19)
(0.22112141 -0.00023459296 1.2204157e-19)
(0.25649134 -3.8297106e-05 4.3372662e-18)
(0.25649692 -9.6712128e-05 1.3403509e-18)
(0.25650928 -0.00015419069 1.2504156e-18)
(0.25652824 -0.00021515485 8.8625294e-20)
(0.25655393 -0.00027585718 -6.9360189e-19)
(0.25658641 -0.0003367553 8.3944395e-20)
(0.25662528 -0.00039769653 -9.6160553e-20)
(0.2566683 -0.00045856441 -1.9948221e-19)
(0.25670691 -0.00051927104 6.4093983e-20)
(0.25671305 -0.00057893859 -2.2377711e-20)
(0.25660095 -0.00063003278 1.6126979e-19)
(0.25610359 -0.00069722485 1.5115398e-19)
(0.25419746 -0.0006651972 1.1070053e-19)
(0.24608527 -0.00069788903 6.8073058e-20)
(0.21752738 -0.00025081848 1.9823933e-19)
(0.25740382 -3.7852859e-05 -2.1341385e-18)
(0.25740947 -9.5689494e-05 -2.1612104e-18)
(0.25742193 -0.00015257331 1.0449795e-18)
(0.25744104 -0.00021291358 1.1734999e-18)
(0.25746687 -0.00027297291 9.3411601e-20)
(0.25749936 -0.0003332193 -2.0393034e-19)
(0.2575377 -0.00039348924 2.8776039e-19)
(0.2575784 -0.00045361301 -9.0573501e-20)
(0.25760945 -0.00051335259 3.6851967e-19)
(0.25759421 -0.00057212213 3.0617806e-19)
(0.25742635 -0.00062159363 2.1434883e-19)
(0.25678237 -0.00068144217 1.5168122e-19)
(0.25443121 -0.00066103685 -1.9576035e-20)
(0.24490935 -0.00064561644 -1.4992483e-20)
(0.21416513 -0.00024776584 1.099105e-19)
(0.25830515 -3.7308638e-05 -1.4801196e-18)
(0.25831084 -9.4372769e-05 -7.0351407e-19)
(0.25832339 -0.00015047649 -3.0015773e-19)
(0.2583426 -0.00020999612 1.2708218e-18)
(0.25836849 -0.00026922145 -9.3195445e-19)
(0.25840083 -0.00032862339 -1.469929e-19)
(0.25843826 -0.00038802594 2.9487699e-19)
(0.25847573 -0.00044722018 2.0948608e-19)
(0.25849727 -0.00050579279 3.3892239e-19)
(0.25845683 -0.00056328987 1.1468116e-19)
(0.25822634 -0.00061131675 2.7655743e-19)
(0.25742154 -0.00066417743 2.5518577e-19)
(0.2545896 -0.00065044234 4.6964546e-20)
(0.24365871 -0.00060064453 -9.8002576e-21)
(0.21103455 -0.00023378679 2.2884521e-20)
(0.259193 -3.669388e-05 8.7038924e-18)
(0.25919873 -9.285746e-05 6.0561857e-18)
(0.25921134 -0.00014806165 -1.8026998e-18)
(0.25923061 -0.00020663289 5.732861e-19)
(0.25925648 -0.0002648995 1.0394759e-18)
(0.25928848 -0.00032332972 4.9569813e-19)
(0.25932457 -0.00038173097 1.4635584e-19)
(0.25935785 -0.00043986308 4.8751491e-19)
(0.25936788 -0.00049714489 2.3160932e-19)
(0.25929853 -0.00055310431 -1.5983419e-19)
(0.2589988 -0.00059970361 2.8373566e-19)
(0.25801896 -0.00064623361 3.3305447e-19)
(0.25467145 -0.00063499349 1.5933099e-19)
(0.24235144 -0.00056062195 3.7065446e-21)
(0.20813123 -0.0002141088 -4.3863379e-20)
(0.26006576 -3.6034055e-05 6.875713e-18)
(0.26007152 -9.1214285e-05 4.6351966e-18)
(0.26008417 -0.00014544281 -2.3072463e-19)
(0.26010346 -0.00020298347 4.5552486e-19)
(0.26012923 -0.00026021093 1.3376703e-18)
(0.2601607 -0.0003175869 5.1376959e-19)
(0.26019497 -0.00037489796 4.2076448e-19)
(0.26022303 -0.0004318747 3.9492972e-19)
(0.26021952 -0.00048779066 2.6935537e-19)
(0.26011767 -0.00054204301 1.9691694e-19)
(0.25974224 -0.00058714002 2.9161853e-19)
(0.25857279 -0.00062806077 1.6303132e-19)
(0.25467557 -0.00061594005 6.0754952e-20)
(0.24100379 -0.00052390611 5.4253532e-20)
(0.20544863 -0.00019196316 4.8751131e-20)
(0.2609225 -3.5349633e-05 4.3201235e-18)
(0.26092828 -8.9497286e-05 4.1435519e-18)
(0.26094096 -0.00014270541 4.0033933e-19)
(0.26096023 -0.00019916671 1.0940069e-19)
(0.2609858 -0.00025530722 9.7605408e-19)
(0.2610165 -0.00031157922 7.6943387e-19)
(0.26104844 -0.00036774517 3.7560205e-19)
(0.2610702 -0.00042350433 4.0474787e-19)
(0.26105114 -0.00047801113 2.1091605e-19)
(0.26091327 -0.00053046086 9.2804026e-20)
(0.2604557 -0.00057393662 1.970422e-19)
(0.2590814 -0.00060990566 3.9489034e-21)
(0.2546009 -0.00059424331 1.7477972e-20)
(0.23963056 -0.00048937354 1.2469558e-19)
(0.20297926 -0.00016931833 1.8520318e-19)
(0.26176274 -3.4655539e-05 2.793415e-18)
(0.26176854 -8.7746856e-05 3.0797258e-18)
(0.26178122 -0.00013991377 -9.7982711e-19)
(0.26180042 -0.00019527247 -7.2988544e-20)
(0.26182568 -0.00025030306 7.9212232e-19)
(0.26185536 -0.00030544608 6.7773212e-19)
(0.26188442 -0.00036043768 2.1379391e-19)
(0.26189878 -0.00041494196 4.6160988e-19)
(0.26186213 -0.00046801763 1.6929143e-19)
(0.2616848 -0.00051862213 -2.1147672e-20)
(0.26113855 -0.00056034346 1.8154722e-19)
(0.25954316 -0.00059189152 1.9524868e-19)
(0.25444651 -0.0005706321 1.1151833e-19)
(0.23824529 -0.00045627776 3.1721274e-20)
(0.20071509 -0.00014735259 1.3887505e-19)
(0.26258633 -3.3963061e-05 5.0522611e-19)
(0.26259213 -8.5993782e-05 1.7948901e-19)
(0.26260479 -0.00013711719 3.5562937e-18)
(0.26262388 -0.00019136968 6.516998e-19)
(0.2626487 -0.00024528656 -1.1750903e-18)
(0.26267708 -0.00029929459 -1.4636032e-19)
(0.26270267 -0.00035310243 4.3549139e-19)
(0.26270848 -0.00040633486 2.1722031e-19)
(0.26265224 -0.00045797299 1.7098343e-19)
(0.26243199 -0.00050672606 1.0263317e-19)
(0.26179026 -0.00054656345 1.2447408e-19)
(0.25995633 -0.0005740675 2.6988792e-19)
(0.25421177 -0.00054566294 1.8457982e-19)
(0.23686046 -0.00042415214 6.4129148e-20)
(0.19864765 -0.0001267576 6.7954405e-20)
(0.26339335 -3.32814e-05 1.0811484e-18)
(0.26339915 -8.4262742e-05 4.4613914e-18)
(0.26341177 -0.0001343551 2.9344133e-18)
(0.26343068 -0.0001875135 9.9578863e-19)
(0.26345493 -0.00024032822 9.6431192e-19)
(0.26348171 -0.00029321054 4.3584665e-19)
(0.2635032 -0.00034584107 3.6544967e-19)
(0.2634993 -0.00039780175 3.1393992e-19)
(0.26342146 -0.00044800829 2.4818347e-19)
(0.26315482 -0.00049492779 6.8535774e-20)
(0.26241041 -0.00053276478 1.1013842e-20)
(0.26031893 -0.00055643964 1.2334519e-19)
(0.2538966 -0.000519773 1.1578386e-19)
(0.23548766 -0.00039274464 5.778293e-20)
(0.19676807 -0.00010792878 4.01444e-21)
(0.26418413 -3.2618313e-05 3.9180793e-18)
(0.26418991 -8.2574227e-05 5.0422142e-18)
(0.26420246 -0.00013166021 6.6297741e-19)
(0.26422112 -0.0001837496 1.1306383e-18)
(0.26424465 -0.00023548649 9.7236014e-19)
(0.2642695 -0.00028726512 1.0391553e-18)
(0.26428624 -0.00033873796 3.4753655e-19)
(0.26427145 -0.00038944152 1.2034898e-19)
(0.26416998 -0.0004382328 2.1779645e-19)
(0.26385341 -0.00048335173 2.3466017e-19)
(0.26299854 -0.00051908846 6.5786225e-20)
(0.26062878 -0.00053898816 9.9372238e-20)
(0.25350187 -0.00049331965 7.7790823e-20)
(0.2341376 -0.00036197184 9.9173645e-20)
(0.19506692 -9.1079357e-05 7.8649282e-20)
(0.26495914 -3.1980325e-05 6.1653008e-18)
(0.2649649 -8.094539e-05 3.8091624e-18)
(0.26497734 -0.00012905989 1.6755313e-18)
(0.26499568 -0.00018011622 1.1600944e-18)
(0.26501831 -0.00023081031 1.0446478e-18)
(0.26504088 -0.00028151807 1.115499e-18)
(0.2650522 -0.00033186392 6.7474962e-19)
(0.2650253 -0.00038133727 3.0477297e-19)
(0.26489816 -0.00042873842 1.95421e-19)
(0.26452796 -0.00047209828 2.014203e-19)
(0.26355413 -0.00050565096 7.4934625e-20)
(0.2608835 -0.00052167636 1.6126701e-19)
(0.25302971 -0.00046660631 1.360723e-19)
(0.23282016 -0.00033188327 1.4505042e-19)
(0.19353413 -7.6303787e-05 1.7272582e-19)
(0.26571903 -3.1372765e-05 3.2594777e-18)
(0.26572475 -7.9390279e-05 3.2649723e-18)
(0.26573705 -0.00012657659 4.1919047e-19)
(0.26575498 -0.00017664472 7.0258955e-19)
(0.26577653 -0.00022633987 1.227297e-18)
(0.26579644 -0.0002760185 1.0778084e-18)
(0.26580163 -0.0003252772 9.2887084e-19)
(0.26576141 -0.00037355728 4.520635e-19)
(0.26560652 -0.00041960061 1.7141234e-19)
(0.26517878 -0.00046124612 -2.2084352e-20)
(0.26407657 -0.00049254343 6.068231e-20)
(0.26108058 -0.00050445572 1.387855e-19)
(0.25248384 -0.000439897 1.4177022e-19)
(0.23154421 -0.00030262987 5.9416909e-20)
(0.19215888 -6.3609733e-05 1.2472904e-19)
(0.26646455 -3.0799673e-05 4.5555315e-18)
(0.26647021 -7.7919712e-05 1.6062515e-18)
(0.26648233 -0.00012422759 3.5630463e-18)
(0.26649975 -0.0001733593 2.5788424e-18)
(0.26652002 -0.00022210618 -3.803792e-19)
(0.26653688 -0.0002708044 1.4612101e-18)
(0.26653522 -0.00031902284 1.5917744e-18)
(0.26648042 -0.00036615421 9.8710446e-19)
(0.26629564 -0.00041087723 5.1700278e-19)
(0.26580617 -0.00045085191 -2.4866607e-19)
(0.26456508 -0.00047982866 4.4616485e-19)
(0.26121753 -0.00048726982 3.1294325e-19)
(0.25186982 -0.00041342264 3.4268915e-19)
(0.23031742 -0.00027443217 2.0068325e-19)
(0.1909297 -5.2932835e-05 1.6955183e-19)
(0.26719653 -3.0263688e-05 2.3796002e-18)
(0.26720212 -7.6541024e-05 -5.1571026e-19)
(0.26721401 -0.00012202465 2.7387443e-18)
(0.26723083 -0.00017027642 2.5876893e-18)
(0.2672496 -0.00021813034 1.1921645e-18)
(0.26726299 -0.00026590165 1.1738432e-18)
(0.26725373 -0.0003131315 1.3957787e-18)
(0.26718309 -0.00035916374 1.0638319e-18)
(0.26696618 -0.00040260692 4.2712098e-19)
(0.26641044 -0.00044094906 -4.4275174e-20)
(0.26501868 -0.00046753759 4.4034647e-19)
(0.26129202 -0.00047005902 3.4529545e-19)
(0.25119506 -0.00038738325 2.187802e-19)
(0.2291461 -0.00024754677 1.889004e-19)
(0.18983455 -4.41451e-05 4.1227842e-20)
(0.26791589 -2.9765992e-05 -4.4641365e-19)
(0.26792138 -7.5257933e-05 3.2816996e-19)
(0.26793299 -0.00011997377 1.3877622e-18)
(0.26794908 -0.00016740449 9.6318389e-19)
(0.26796613 -0.00021442313 2.4237549e-18)
(0.26797562 -0.00026132352 6.4749503e-19)
(0.267958 -0.00030761887 4.9792191e-19)
(0.26787018 -0.00035260382 2.9650321e-19)
(0.2676188 -0.00039480805 -6.1285904e-20)
(0.2669918 -0.00043154706 1.2619097e-19)
(0.26543617 -0.00045566687 -9.2724481e-21)
(0.2613021 -0.00045276643 7.3228558e-20)
(0.2504687 -0.00036194908 1.5611557e-20)
(0.22803501 -0.00022223217 7.751699e-20)
(0.18886112 -3.7064087e-05 -4.4314677e-20)
(0.26862352 -2.9306384e-05 6.7776701e-18)
(0.2686289 -7.4070663e-05 1.1499639e-18)
(0.26864017 -0.00011807533 3.6838044e-18)
(0.26865542 -0.00016474413 2.2896201e-18)
(0.26867049 -0.00021098533 2.1001873e-18)
(0.26867563 -0.00025707101 1.8165783e-18)
(0.26864885 -0.00030248607 1.123721e-18)
(0.26854251 -0.00034647516 1.0772461e-18)
(0.26825414 -0.00038747925 7.4495324e-19)
(0.26755035 -0.00042263245 -1.0139017e-19)
(0.2658161 -0.00044417905 1.4222278e-19)
(0.26124652 -0.00043534493 2.9422001e-19)
(0.24970133 -0.00033726333 3.0808333e-19)
(0.22698727 -0.00019871676 4.4001065e-19)
(0.18799711 -3.14664e-05 2.8839235e-19)
(0.26932033 -2.8883461e-05 2.9609048e-18)
(0.26932558 -7.2976358e-05 -8.9614179e-19)
(0.26933645 -0.00011632482 2.4925239e-19)
(0.26935072 -0.00016228909 1.8788634e-18)
(0.26936357 -0.0002078089 1.508274e-18)
(0.26936389 -0.00025313433 1.4955136e-18)
(0.26932713 -0.0002977213 1.2225872e-18)
(0.26920083 -0.00034076322 1.0528017e-18)
(0.2688728 -0.00038060159 9.3534666e-19)
(0.26808605 -0.00041417146 3.5411485e-19)
(0.26615679 -0.00043300583 2.5345296e-19)
(0.26112496 -0.00041776402 3.620151e-19)
(0.24890441 -0.00031344658 4.0686222e-19)
(0.22600436 -0.00017717261 4.951023e-19)
(0.18723056 -2.7105587e-05 2.4299947e-19)
(0.27000719 -2.8494911e-05 1.3144613e-18)
(0.27001228 -7.1969745e-05 2.6444841e-18)
(0.27002267 -0.00011471384 2.5418441e-18)
(0.27003582 -0.00016002771 1.7763893e-18)
(0.27004618 -0.00020487885 4.8842765e-19)
(0.27004119 -0.00024949516 1.1201255e-18)
(0.2699936 -0.00029330262 1.1743311e-18)
(0.26984584 -0.00033544136 8.9825508e-19)
(0.26947524 -0.00037414209 6.9681184e-19)
(0.2685986 -0.00040611399 3.1982302e-19)
(0.26645635 -0.00042205446 2.917015e-19)
(0.2609383 -0.00040001524 3.0697078e-19)
(0.24808975 -0.00029060213 4.2957762e-19)
(0.22508629 -0.00015769827 4.303458e-19)
(0.18655015 -2.373213e-05 2.4224983e-19)
(0.27068489 -2.8137826e-05 8.5730313e-18)
(0.2706898 -7.1043908e-05 4.3983885e-18)
(0.27069965 -0.00011323138 4.7984549e-18)
(0.27071153 -0.00015794462 3.6175333e-18)
(0.2707191 -0.00020217545 1.3571368e-18)
(0.27070829 -0.00024612933 2.1167866e-18)
(0.27064898 -0.00028920108 1.8423047e-18)
(0.27047818 -0.00033047455 1.5994141e-18)
(0.27006181 -0.00036805784 9.9832114e-19)
(0.26908753 -0.00039839812 1.1441673e-19)
(0.26671278 -0.00041121649 5.4777538e-19)
(0.26068881 -0.00038211516 6.3095627e-19)
(0.24726882 -0.00026882041 5.6607036e-19)
(0.22423175 -0.00014031231 5.9673133e-19)
(0.18594537 -2.1112148e-05 4.5303482e-19)
(0.27135418 -2.7809012e-05 2.1832875e-18)
(0.27135887 -7.0191042e-05 4.440268e-18)
(0.2713681 -0.00011186497 3.0153457e-18)
(0.27137855 -0.00015602247 2.8108092e-18)
(0.27138303 -0.00019967637 2.5739493e-18)
(0.27136587 -0.00024300949 1.3739613e-18)
(0.27129391 -0.00028538386 1.0593531e-18)
(0.27109836 -0.000325823 8.1239246e-19)
(0.27063272 -0.00036230005 5.6838861e-19)
(0.26955206 -0.00039095432 3.7287757e-19)
(0.26692403 -0.00040037784 3.2889103e-19)
(0.26038022 -0.00036410564 3.5043504e-19)
(0.24645221 -0.00024818088 3.2616855e-19)
(0.22343841 -0.00012495719 2.5516089e-19)
(0.18540672 -1.9041833e-05 2.7709057e-19)
(0.27201571 -2.7505236e-05 -9.649056e-20)
(0.27202015 -6.9403101e-05 3.8618248e-18)
(0.27202866 -0.00011060176 3.6315026e-18)
(0.27203751 -0.00015424332 2.5639018e-18)
(0.2720386 -0.00019735858 2.3865109e-18)
(0.27201452 -0.00024010733 1.2573751e-18)
(0.27192892 -0.00028181693 9.099426e-19)
(0.2717068 -0.00032144525 9.4070434e-19)
(0.27118802 -0.00035681747 8.1761635e-19)
(0.2699912 -0.00038370884 2.9694303e-19)
(0.26708822 -0.000389429 4.2880948e-19)
(0.26001771 -0.00034605163 2.5010294e-19)
(0.24564917 -0.00022875086 4.5066955e-19)
(0.22270325 -0.00011151162 3.7026274e-19)
(0.18492573 -1.7355845e-05 2.6254695e-19)
(0.27267005 -2.7223404e-05 4.2982158e-19)
(0.27267421 -6.867227e-05 1.1443008e-18)
(0.27268192 -0.00010942927 1.7930832e-18)
(0.27268898 -0.00015258973 2.6180566e-18)
(0.27268634 -0.00019519966 2.3103555e-18)
(0.27265476 -0.00023739527 1.4459724e-18)
(0.27255447 -0.00027846699 1.10274e-18)
(0.2723038 -0.00031730047 1.1069822e-18)
(0.27172756 -0.00035155884 7.0716902e-19)
(0.27040369 -0.00037658611 6.0759617e-19)
(0.26720375 -0.00037827411 4.6464694e-19)
(0.25960771 -0.00032803713 3.8580694e-19)
(0.24486735 -0.00021058184 4.3654693e-19)
(0.22202277 -9.9808141e-05 2.7800342e-19)
(0.18449494 -1.5929486e-05 2.9822122e-19)
(0.27331772 -2.6960667e-05 3.8429212e-18)
(0.27332155 -6.7991276e-05 3.7768786e-18)
(0.27332837 -0.00010833587 3.2565919e-18)
(0.27333345 -0.00015104547 2.4983644e-18)
(0.27332673 -0.00019317869 1.2782429e-18)
(0.27328702 -0.00023484751 1.5092206e-18)
(0.27317093 -0.0002753027 1.3583612e-18)
(0.27288957 -0.0003133499 7.8532714e-19)
(0.27225107 -0.00034647443 6.7687927e-19)
(0.27078808 -0.0003695104 5.4869555e-19)
(0.26726952 -0.00036683813 4.7302273e-19)
(0.25915765 -0.0003101602 5.3550928e-19)
(0.24411266 -0.00019370463 4.2388445e-19)
(0.22139331 -8.9652402e-05 2.6570117e-19)
(0.1841079 -1.4675689e-05 3.6293499e-19)
(0.27395916 -2.6714476e-05 9.0121018e-18)
(0.27396262 -6.7353543e-05 4.697504e-18)
(0.27396843 -0.00010731104 4.3238598e-18)
(0.27397134 -0.00014959583 3.680645e-18)
(0.27396016 -0.00019127672 1.8779568e-18)
(0.27391168 -0.00023244055 2.2845764e-18)
(0.2737786 -0.00027229533 2.1010181e-18)
(0.27346419 -0.00030955757 1.5390167e-18)
(0.27275806 -0.00034151676 1.2499796e-18)
(0.27114274 -0.00036240704 3.4540053e-19)
(0.26728512 -0.00035507155 6.0743742e-19)
(0.25867552 -0.00029252748 8.4336338e-19)
(0.24338933 -0.00017812521 8.6640305e-19)
(0.22081116 -8.0841193e-05 7.0943134e-19)
(0.18375901 -1.3538669e-05 4.8990773e-19)
(0.27459475 -2.648259e-05 1.7376975e-18)
(0.2745978 -6.6753261e-05 3.8239999e-18)
(0.27460249 -0.0001063455 3.0627141e-18)
(0.274603 -0.0001482278 2.3313127e-18)
(0.27458699 -0.00018947691 2.7007716e-18)
(0.27452902 -0.00023015345 1.4535527e-18)
(0.27437767 -0.00026941896 1.4715742e-18)
(0.27402763 -0.00030589064 9.5078641e-19)
(0.27324789 -0.00033664079 6.4939168e-19)
(0.27146593 -0.00035520381 4.6831588e-19)
(0.26725094 -0.00034295249 1.5828894e-19)
(0.25816956 -0.00027524859 4.6870486e-19)
(0.24270004 -0.00016382254 5.4124333e-19)
(0.22027275 -7.3177108e-05 3.1356193e-19)
(0.18344349 -1.2486088e-05 2.4095382e-19)
(0.27522481 -2.6263071e-05 2.9140468e-18)
(0.27522741 -6.6185368e-05 3.5942643e-18)
(0.27523087 -0.00010543114 3.592535e-18)
(0.27522875 -0.00014693 2.1011722e-18)
(0.27520748 -0.00018776456 2.2281856e-18)
(0.2751393 -0.00022796774 1.6838172e-18)
(0.27496829 -0.00026665041 1.2470501e-18)
(0.27457978 -0.00030231921 9.4542773e-19)
(0.27371976 -0.0003318036 6.5221246e-19)
(0.27175586 -0.00034783257 4.6892678e-19)
(0.26716832 -0.00033048644 2.4442962e-19)
(0.25764777 -0.0002584306 3.7250221e-19)
(0.24204621 -0.0001507494 4.3060858e-19)
(0.21977469 -6.6478881e-05 2.9055142e-19)
(0.18315725 -1.1501421e-05 2.0319274e-19)
(0.27584964 -2.6054261e-05 2.7475193e-18)
(0.27585173 -6.5645512e-05 1.4150307e-18)
(0.27585383 -0.00010456099 1.2984934e-18)
(0.27584885 -0.00014569263 1.7981331e-18)
(0.27582189 -0.00018612688 2.1230685e-18)
(0.2757427 -0.00022586725 1.8834494e-18)
(0.27555052 -0.00026396905 1.1577934e-18)
(0.27512041 -0.00029881616 1.1027655e-18)
(0.27417268 -0.00032696406 6.4804152e-19)
(0.27201082 -0.00034023145 8.5216496e-19)
(0.26703956 -0.00031770398 3.5738395e-19)
(0.25711762 -0.00024217267 3.746492e-19)
(0.24142819 -0.0001388359 3.1706922e-19)
(0.21931381 -6.0587296e-05 4.0351143e-19)
(0.18289682 -1.0577466e-05 2.2306336e-19)
(0.27646948 -2.5854749e-05 1.1851068e-18)
(0.27647102 -6.512998e-05 5.0841267e-18)
(0.27647162 -0.00010372909 2.7344074e-18)
(0.27646352 -0.0001445073 2.1533685e-18)
(0.2764304 -0.00018455289 1.2208823e-18)
(0.27633935 -0.00022383791 1.682404e-18)
(0.27612438 -0.00026135648 1.438545e-18)
(0.27564919 -0.00029535665 1.0422832e-18)
(0.27460555 -0.00032208225 6.576019e-19)
(0.27222923 -0.0003323472 7.9042102e-19)
(0.26686787 -0.00030465718 4.925918e-19)
(0.25658579 -0.00022656125 4.8110433e-19)
(0.2408456 -0.00012799525 1.9779595e-19)
(0.21888719 -5.5367362e-05 4.5609338e-19)
(0.18265925 -9.7115788e-06 2.6899289e-19)
(0.27708455 -2.5663343e-05 7.3920162e-18)
(0.27708548 -6.4635629e-05 6.3321996e-18)
(0.27708444 -0.0001029304 4.8127619e-18)
(0.27707294 -0.00014336686 3.7224418e-18)
(0.27703318 -0.00018303314 2.1235371e-18)
(0.27692935 -0.00022186743 2.1077119e-18)
(0.2766898 -0.00025879622 1.9641506e-18)
(0.27616569 -0.00029191777 1.546758e-18)
(0.27501711 -0.00031711915 1.2205266e-18)
(0.27240981 -0.00032413774 4.3750847e-19)
(0.26665728 -0.00029141517 9.7794375e-19)
(0.256058 -0.00021166603 8.9763223e-19)
(0.24029748 -0.00011813046 5.9042431e-19)
(0.21849214 -5.0707635e-05 6.8377073e-19)
(0.18244204 -8.9025291e-06 4.700975e-19)
(0.27769504 -2.5479043e-05 2.9849938e-18)
(0.27769529 -6.4159804e-05 4.5049695e-18)
(0.27769247 -0.00010216064 3.4900968e-18)
(0.27767729 -0.00014226521 2.381612e-18)
(0.27763035 -0.00018155949 3.1948025e-18)
(0.27751275 -0.00021994503 1.1000759e-18)
(0.27724666 -0.00025627339 9.2555559e-19)
(0.27666938 -0.00028847796 8.6881628e-19)
(0.275406 -0.00031203633 7.853787e-19)
(0.27255164 -0.0003155742 3.9610343e-19)
(0.26641246 -0.00027805924 5.5481058e-19)
(0.25553894 -0.0001975371 3.8516388e-19)
(0.23978254 -0.00010914112 4.6627136e-19)
(0.21812621 -4.6517853e-05 2.898795e-19)
(0.18224308 -8.1488508e-06 2.8353022e-19)
(0.27830111 -2.5301004e-05 1.1149956e-18)
(0.27830062 -6.3700266e-05 2.5251382e-18)
(0.27829586 -0.0001014162 3.0003336e-18)
(0.2782767 -0.00014119716 2.1637742e-18)
(0.278222 -0.00018012493 2.2251527e-18)
(0.27808956 -0.00021806116 1.5227381e-18)
(0.2777948 -0.00025377436 8.9322567e-19)
(0.27715962 -0.0002850166 8.3807429e-19)
(0.27577079 -0.00030679609 6.7280558e-19)
(0.27265429 -0.00030664248 4.5504741e-19)
(0.26613848 -0.00026467813 4.4490186e-19)
(0.2550323 -0.00018420368 4.7198073e-19)
(0.23929925 -0.00010092915 5.7000991e-19)
(0.21778713 -4.2725633e-05 2.7351663e-19)
(0.18206056 -7.4481359e-06 2.9293543e-19)
(0.27890291 -2.5128514e-05 1.1852348e-18)
(0.27890162 -6.3255124e-05 9.5014891e-19)
(0.27889474 -0.000100694 9.7933181e-19)
(0.27887126 -0.00014015826 1.7554654e-18)
(0.27880821 -0.00017872331 1.780474e-18)
(0.27865976 -0.00021620723 1.5263273e-18)
(0.27833397 -0.0002512865 1.2270647e-18)
(0.27763569 -0.00028151344 8.2445549e-19)
(0.27611001 -0.00030136188 8.0200539e-19)
(0.2727179 -0.00029734385 9.8296704e-19)
(0.26584062 -0.00025136316 6.031766e-19)
(0.25454084 -0.00017167438 4.1605527e-19)
(0.23884602 -9.340315e-05 2.9576641e-19)
(0.21747286 -3.9273078e-05 2.167455e-19)
(0.18189296 -6.7970281e-06 3.373537e-19)
(0.27950056 -2.496097e-05 -9.8332397e-19)
(0.2794984 -6.282277e-05 3.3268578e-18)
(0.27948922 -9.9991427e-05 1.471352e-18)
(0.27946108 -0.00013914466 1.1927865e-18)
(0.279389 -0.00017734921 2.0217795e-18)
(0.27922329 -0.00021437542 7.5045487e-19)
(0.27886389 -0.00024879792 7.0632621e-19)
(0.27809674 -0.00027794828 1.514585e-19)
(0.27642222 -0.0002956992 2.529826e-19)
(0.27274323 -0.00028769473 9.4924678e-19)
(0.2655241 -0.00023820406 2.846805e-19)
(0.25406651 -0.00015993912 -1.0627507e-19)
(0.23842119 -8.6481043e-05 -1.8099106e-19)
(0.21718151 -3.6113601e-05 -7.6815461e-20)
(0.18173897 -6.1914673e-06 1.3788861e-19)
(0.28009418 -2.4797854e-05 5.3552301e-19)
(0.28009107 -6.2401829e-05 3.0458967e-18)
(0.28007941 -9.9306208e-05 3.6152521e-18)
(0.28004623 -0.00013815298 1.9704124e-18)
(0.27996442 -0.00017599776 2.3020789e-18)
(0.27978006 -0.00021255837 1.0928946e-18)
(0.2793842 -0.00024629714 6.381727e-19)
(0.27854186 -0.0002743005 1.4102548e-19)
(0.27670605 -0.00028977675 1.1840688e-19)
(0.27273166 -0.00027772559 6.0946802e-19)
(0.26519392 -0.0002252849 2.9654599e-19)
(0.25361059 -0.00014897205 2.1821979e-19)
(0.23802316 -8.0091222e-05 9.0850758e-20)
(0.21691137 -3.3209328e-05 1.5212143e-19)
(0.18159747 -5.6270915e-06 7.7315966e-20)
(0.28068388 -2.4638719e-05 3.134068e-18)
(0.28067974 -6.199111e-05 4.5464391e-18)
(0.28066539 -9.8636364e-05 3.5342805e-18)
(0.28062676 -0.00013718022 2.1754798e-18)
(0.28053445 -0.00017466447 2.060173e-18)
(0.28032993 -0.0002107491 9.5487448e-19)
(0.27989449 -0.00024377294 6.4196774e-19)
(0.27897002 -0.00027054889 4.9228764e-19)
(0.27696025 -0.00028356785 3.6346273e-19)
(0.27268518 -0.00026747914 5.582062e-19)
(0.26485469 -0.00021268091 3.4445063e-19)
(0.25317379 -0.00013873548 1.6225462e-19)
(0.23765034 -7.4172507e-05 7.0648522e-20)
(0.2166609 -3.0529019e-05 2.6741604e-19)
(0.18146749 -5.0995582e-06 7.7441111e-20)
(0.28126974 -2.448317e-05 3.4060186e-18)
(0.28126449 -6.1589562e-05 6.8074799e-18)
(0.28124722 -9.798013e-05 3.2733185e-18)
(0.28120271 -0.00013622363 8.4427492e-19)
(0.28109907 -0.00017334514 5.6195978e-19)
(0.28087275 -0.00020894082 2.2704297e-19)
(0.28039427 -0.00024121405 -2.8424469e-19)
(0.27938014 -0.0002666715 -6.0399412e-20)
(0.27718382 -0.0002770519 4.1195708e-20)
(0.27260633 -0.0002570081 2.0531126e-19)
(0.26451052 -0.00020045586 -2.628559e-19)
(0.25275643 -0.00012918377 -5.7693778e-19)
(0.23730122 -6.8673268e-05 -5.3342294e-19)
(0.21642866 -2.8046551e-05 -2.6445514e-19)
(0.18134818 -4.604806e-06 -1.1191988e-19)
(0.28185185 -2.4330854e-05 1.5273193e-18)
(0.28184539 -6.1196246e-05 5.2722609e-18)
(0.28182498 -9.7335902e-05 3.568123e-18)
(0.28177412 -0.00013528067 1.5564824e-18)
(0.28165823 -0.00017203573 9.4925355e-19)
(0.2814083 -0.00020712676 5.9425474e-19)
(0.28088299 -0.00023860898 -7.8907848e-20)
(0.27977106 -0.00026264569 -2.3981746e-19)
(0.27737601 -0.00027021573 1.0552144e-19)
(0.27249806 -0.00024637256 2.8377108e-21)
(0.26416497 -0.0001886604 -3.7175343e-19)
(0.2523585 -0.00012026722 -4.8076722e-19)
(0.23697438 -6.355012e-05 -5.0810372e-19)
(0.21621337 -2.5739809e-05 -3.1284593e-19)
(0.18123881 -4.1391994e-06 -8.9881813e-20)
(0.28243029 -2.4181446e-05 2.5891914e-18)
(0.28242252 -6.0810304e-05 4.2449338e-18)
(0.28239871 -9.6702193e-05 3.1714956e-18)
(0.28234099 -0.00013434891 3.2231284e-18)
(0.28221186 -0.00017073227 2.3786805e-18)
(0.28193636 -0.00020530012 1.2643344e-18)
(0.28136003 -0.00023594578 9.9461515e-19)
(0.2801416 -0.00025844845 5.599681e-19)
(0.27753642 -0.00026305461 4.6248865e-19)
(0.27236366 -0.00023563725 3.1170295e-20)
(0.26382105 -0.00017733135 1.6069193e-19)
(0.25197976 -0.00011193519 -3.2431112e-21)
(0.23666845 -5.8766487e-05 6.9318807e-20)
(0.21601387 -2.3589914e-05 1.4298487e-19)
(0.1811387 -3.6995934e-06 1.4264338e-19)
(0.28300512 -2.4034646e-05 3.8263152e-18)
(0.28299594 -6.0430934e-05 3.0037176e-18)
(0.28296845 -9.6077591e-05 3.4477555e-18)
(0.28290332 -0.00013342601 2.6436725e-18)
(0.28275987 -0.00016943077 2.0545821e-18)
(0.28245663 -0.00020345397 9.8635034e-19)
(0.28182471 -0.00023321186 9.6678555e-19)
(0.28049057 -0.0002540569 6.2038096e-19)
(0.27766504 -0.00025557284 2.880142e-19)
(0.27220658 -0.00022486879 3.4095042e-19)
(0.26348123 -0.0001664919 2.6108277e-19)
(0.25161982 -0.00010413862 5.2638513e-20)
(0.23638216 -5.4291231e-05 3.3891155e-19)
(0.21582908 -2.1580659e-05 2.5666438e-19)
(0.18104728 -3.2833408e-06 1.5531481e-19)
(0.2835764 -2.3890166e-05 4.3084188e-18)
(0.28356569 -6.0057376e-05 3.5051707e-18)
(0.28353424 -9.5460736e-05 3.5875626e-18)
(0.2834611 -0.00013250961 2.8819824e-18)
(0.28330215 -0.00016812718 2.0436391e-18)
(0.28296879 -0.00020158114 1.2800474e-18)