/*--------------------------------*- C++ -*----------------------------------*\
| =========                 |                                                 |
| \\      /  F ield         | OpenFOAM: The Open Source CFD Toolbox           |
|  \\    /   O peration     | Version:  2506                                  |
|   \\  /    A nd           | Website:  www.openfoam.com                      |
|    \\/     M anipulation  |                                                 |
\*---------------------------------------------------------------------------*/
FoamFile
{
    version     2.0;
    format      ascii;
    arch        "LSB;label=32;scalar=64";
    class       volScalarField;
    location    "3000/rock";
    object      T;
}
// * * * * * * * * * * * * * * * * * * * * * * * * * * * * * * * * * * * * * //

dimensions      [0 0 0 1 0 0 0];

internalField   nonuniform List<scalar> 
6000
(
315.46785
304.37145
298.66645
295.25493
293.01271
291.44127
290.28761
289.4104
288.72481
288.17703
287.73138
287.36333
287.05551
286.79531
286.57335
286.38255
286.21746
286.07381
285.94822
285.83801
285.74097
285.6553
285.57948
285.51225
285.45249
285.39919
285.3514
285.3081
285.26807
285.22953
319.07543
308.26418
302.08064
298.16378
295.50321
293.60053
292.18513
291.09903
290.24456
289.55846
288.99815
288.53401
288.1449
287.81533
287.53375
287.29138
287.08142
286.89856
286.73858
286.59808
286.47432
286.36501
286.26827
286.1825
286.10629
286.03842
285.97773
285.92309
285.87328
285.82694
320.87205
310.80104
304.64265
300.53787
297.64691
295.52607
293.91932
292.66981
291.67689
290.87347
290.21338
289.66396
289.20156
288.80867
288.4721
288.18176
287.92978
287.70999
287.51744
287.34817
287.19894
287.06706
286.9503
286.84679
286.75491
286.67322
286.60044
286.5354
286.47696
286.42406
321.95936
312.55829
306.5906
302.46636
299.47233
297.22248
295.48585
294.11554
293.01415
292.11487
291.37065
290.74756
290.22063
289.77111
289.38476
289.05053
288.75978
288.50566
288.28267
288.08637
287.91311
287.75988
287.62416
287.50384
287.39711
287.30239
287.21832
287.14367
287.07737
287.0185
322.7099
313.85364
308.1123
304.04696
301.02663
298.71065
296.89236
295.43741
294.2545
293.27954
292.46642
291.78127
291.19874
290.69956
290.2689
289.89514
289.56911
289.2835
289.0324
288.81098
288.61529
288.44205
288.28852
288.15239
288.0317
287.92476
287.83012
287.74653
287.67292
287.60844
323.27342
314.85895
309.33623
305.36185
302.35827
300.01756
298.15301
296.64213
295.40044
294.36764
293.4996
292.76336
292.13391
291.59196
291.12251
290.71366
290.35598
290.04184
289.76504
289.52053
289.3041
289.11229
288.94216
288.79127
288.65753
288.53915
288.43463
288.34268
288.26222
288.19239
323.72054
315.67099
310.34723
306.47381
303.5097
301.17033
299.28436
297.73934
296.45721
295.38168
294.47101
293.69366
293.02536
292.44722
291.94432
291.50477
291.11904
290.77934
290.47934
290.2138
289.97838
289.76946
289.58399
289.4194
289.27352
289.14449
289.03074
288.93096
288.84403
288.76908
324.08918
316.34743
311.20165
307.42914
304.51559
302.19341
300.30293
298.73982
297.43159
296.32568
295.38285
294.57315
293.87331
293.26503
292.73372
292.26767
291.85737
291.49505
291.1743
290.8898
290.63714
290.4126
290.21305
290.03584
289.87872
289.73979
289.61744
289.51031
289.41727
289.3374
324.40176
316.92453
311.93764
308.26178
305.40336
303.10764
301.22391
299.65426
298.33086
297.20448
296.23819
295.40365
294.6787
294.04574
293.49066
293.00202
292.57048
292.18834
291.84921
291.54779
291.2796
291.0409
290.82851
290.63973
290.47227
290.32419
290.19383
290.07982
289.981
289.89641
324.67255
317.42627
312.58177
308.99671
306.19444
303.93033
302.06066
300.49266
299.16231
298.02321
297.04056
296.18751
295.443
294.79019
294.21551
293.70787
293.25817
292.85885
292.50362
292.1872
291.90516
291.65372
291.42969
291.23037
291.05343
290.89691
290.75913
290.63869
290.53439
290.44528
324.91109
317.86915
313.15298
309.65256
306.90556
304.67563
302.82465
301.264
299.93278
298.787
297.79368
296.92737
296.16802
295.49956
294.90897
294.38558
293.92053
293.50649
293.13727
292.8077
292.51336
292.25054
292.01605
291.80717
291.62159
291.45732
291.31267
291.18622
291.07676
290.9833
325.12402
318.26492
313.66514
310.2434
307.54983
305.35505
303.52559
301.9762
300.64856
299.50073
298.50128
297.62599
296.85577
296.17527
295.57201
295.03573
294.55789
294.13135
293.75011
293.40908
293.10395
292.83103
292.58717
292.36968
292.17624
292.00487
291.85388
291.72183
291.60751
291.50989
325.31614
318.62219
314.12863
310.78003
308.1376
305.97799
304.17164
302.63612
301.31531
300.16892
299.16691
298.28613
297.50834
296.81886
296.20573
295.6591
295.17072
294.73371
294.34222
293.99131
293.67676
293.39494
293.14275
292.91753
292.71699
292.53914
292.38232
292.24506
292.12614
292.02454
325.49098
318.94744
314.55136
311.27088
308.67712
306.5521
304.76964
303.24971
301.93801
300.79571
299.79393
298.91046
298.12782
297.43193
296.81134
296.25655
295.75964
295.31396
294.91384
294.55448
294.23177
293.94215
293.6826
293.45048
293.24353
293.0598
292.89761
292.75551
292.63228
292.52687
325.65126
319.24563
314.93951
311.72258
309.17503
307.08368
305.32533
303.82204
302.52106
301.38483
300.38544
299.50152
298.71625
298.01611
297.39008
296.82904
296.32535
295.87259
295.46529
295.09878
294.76905
294.47266
294.20663
293.96838
293.75568
293.56661
293.3995
293.25291
293.12561
293.01657
325.79906
319.52067
315.29793
312.14044
309.63672
307.57794
305.84357
304.35748
303.06833
301.9396
300.94427
300.06167
299.27557
298.57297
297.94323
297.37756
296.86862
296.41018
295.99697
295.62446
295.28877
294.98652
294.71482
294.47114
294.2533
294.0594
293.88778
293.73703
293.60592
293.4934
325.93606
319.77565
315.63053
312.52878
310.06662
308.0392
306.32842
304.8598
303.58317
302.46299
301.47297
300.59309
299.80764
299.10403
298.47202
297.90312
297.39023
296.92734
296.50935
296.13188
295.79114
295.48387
295.20724
294.95878
294.73635
294.53809
294.36235
294.20775
294.07305
293.95721
326.0636
320.01307
315.94048
312.89112
310.46837
308.47108
306.78336
305.33221
304.06854
302.95763
301.97387
301.0978
300.31415
299.61075
298.97767
298.40671
297.89099
297.42472
297.00294
296.62141
296.27646
295.96491
295.68402
295.43137
295.20486
295.00266
294.82317
294.66499
294.52693
294.40791
326.1828
320.23498
316.23038
313.23037
310.84503
308.87664
307.21135
305.77751
304.52701
303.42586
302.44906
301.57762
300.79672
300.0945
299.46135
298.88931
298.37173
297.90298
297.47826
297.09347
296.74505
296.4299
296.14534
295.88902
295.65889
295.45315
295.27023
295.10875
294.96752
294.84548
326.29457
320.4431
316.5024
313.54897
311.19916
309.25847
307.61492
306.19812
304.96083
303.86975
302.9004
302.03425
301.25681
300.55657
299.92416
299.35187
298.83323
298.36278
297.93588
297.54853
297.19728
296.87911
296.59141
296.3319
296.09857
295.88965
295.70361
295.53907
295.39486
295.26994
326.39967
320.63883
316.75836
313.84899
311.53296
309.61878
307.99626
306.59613
305.372
304.29114
303.32959
302.46918
301.69578
300.99815
300.36716
299.79529
299.27628
298.8048
298.37636
297.98706
297.63353
297.31287
297.02252
296.76024
296.52408
296.31231
296.12341
295.95604
295.80904
295.68136
326.49877
320.82338
316.9998
314.13216
311.84827
309.95949
308.35726
306.9734
305.76226
304.69168
303.73814
302.88382
302.11489
301.42036
300.79132
300.22045
299.70163
299.2297
298.80026
298.40952
298.05423
297.73153
297.43893
297.17427
296.93562
296.72128
296.52978
296.35979
296.21016
296.07985
326.59239
320.99777
317.22803
314.39998
312.14671
310.28224
308.69957
307.33153
306.13316
305.07283
304.12741
303.27942
302.51528
301.82424
301.19759
300.62818
300.11003
299.63811
299.20813
298.81642
298.45978
298.13544
297.84098
297.57426
297.33342
297.11679
296.92291
296.75049
296.59838
296.46556
326.68104
321.16289
317.44418
314.65375
312.42966
310.58846
309.02463
307.67194
306.48608
305.43591
304.49865
303.65712
302.89801
302.21076
301.58684
301.01926
300.50217
300.03066
299.60055
299.20824
298.85062
298.525
298.22899
297.96052
297.71775
297.49906
297.30302
297.12834
296.97389
296.83868
326.7651
321.31949
317.64923
314.89458
312.69833
310.87942
309.33372
307.9959
306.82225
305.78208
304.85296
304.01798
303.26405
302.58081
301.95989
301.39443
300.87872
300.40795
299.97804
299.58546
299.22719
298.90057
298.6033
298.33334
298.08888
297.86835
297.67032
297.49355
297.3369
297.1994
326.84495
321.46823
317.84404
315.12346
312.95378
311.15621
309.62796
308.30452
307.14276
306.11241
305.19135
304.36294
303.6143
302.93522
302.3175
301.7544
301.24033
300.77058
300.34113
299.94857
299.58991
299.26257
298.96428
298.69305
298.44712
298.22493
298.02509
297.84636
297.68765
297.54795
326.92088
321.60969
318.02935
315.34125
313.19695
311.41983
309.90836
308.59881
307.4486
306.42786
305.51476
304.6929
303.94958
303.27477
302.6604
302.09984
301.58762
301.11909
300.69036
300.29803
299.93922
299.61137
299.31228
299.03999
298.79277
298.56909
298.36759
298.18704
298.02637
297.88458
326.99319
321.74439
318.20583
315.54871
313.42866
311.67115
310.17579
308.87966
307.74066
306.72929
305.82401
305.00864
304.27066
303.60018
302.98926
302.43138
301.92116
301.45405
301.0262
300.63432
300.27554
299.94738
299.64767
299.37449
299.12615
298.90113
298.6981
298.51586
298.35334
298.20955
327.0621
321.87277
318.37405
315.74652
313.64967
311.91093
310.43108
309.14788
308.01974
307.0175
306.11988
305.31091
304.57824
303.91212
303.30471
302.74962
302.24152
301.77596
301.34916
300.95787
300.59929
300.27099
299.97082
299.6969
299.44758
299.22136
299.01693
298.83311
298.66883
298.52313
327.12785
321.99525
318.53456
315.93528
313.86062
312.1399
310.67494
309.40421
308.28657
307.2932
306.40308
305.6004
304.87299
304.21121
303.60736
303.05511
302.54923
302.08533
301.6597
301.26914
300.9109
300.58258
300.28208
300.00757
299.75739
299.53009
299.32437
299.13906
298.97312
298.8256
327.19061
322.11217
318.68781
316.11554
314.06213
312.35867
310.90802
309.6493
308.54183
307.55706
306.67424
305.87773
305.1555
304.49805
303.89776
303.34839
302.84479
302.38264
301.95827
301.56854
301.21075
300.88254
300.58183
300.30683
300.0559
299.82763
299.62072
299.43402
299.26651
299.11724
327.25058
322.22388
318.83423
316.28781
314.25474
312.56782
311.13093
309.88378
308.78611
307.8097
306.93397
306.1435
305.42637
304.77319
304.17644
303.62997
303.12869
302.66834
302.24531
301.8565
301.49925
301.17124
300.87043
300.59503
300.34346
300.1143
299.90629
299.7183
299.54929
299.39834
327.3079
322.33067
318.97421
316.45251
314.43892
312.76789
311.34421
310.1082
309.02
308.05166
307.18283
306.39824
305.6861
305.03714
304.4439
303.90033
303.40139
302.94289
302.52124
302.13342
301.77679
301.44905
301.14822
300.87252
300.62038
300.39043
300.1814
299.99218
299.82175
299.6692
327.36273
322.4328
319.1081
316.61007
314.61514
312.95934
311.54835
310.32307
309.244
308.28347
307.42134
306.64247
305.93521
305.29038
304.70062
304.15993
303.66334
303.20669
302.78648
302.39969
302.04373
301.71634
301.41555
301.13962
300.887
300.65632
300.44635
300.25598
300.0842
299.93012
327.41519
322.53052
319.23622
316.76085
314.78381
313.14261
311.74382
310.52885
309.45859
308.50561
307.64996
306.87666
306.17416
305.53338
304.94704
304.40919
303.91494
303.46017
303.04141
302.65569
302.30045
301.97346
301.67277
301.39667
301.14363
300.91229
300.70144
300.50998
300.33693
300.18137
327.4654
322.62406
319.35886
316.9052
314.94531
313.31813
311.93104
310.726
309.66422
308.71853
307.86916
307.10125
306.40339
305.76657
305.18358
304.64854
304.1566
303.7037
303.28641
302.90178
302.5473
302.22075
301.92021
301.64399
301.39059
301.15865
300.94698
300.7545
300.58023
300.42327
327.51348
322.71362
319.4763
317.04343
315.09998
313.48625
312.11041
310.91491
309.8613
308.92265
308.07934
307.31668
306.62332
305.99035
305.41064
304.87836
304.38871
303.93767
303.52185
303.13833
302.78462
302.45855
302.1582
301.88191
301.62819
301.39571
301.18328
300.98983
300.81439
300.65608
327.55954
322.7994
319.58878
317.17584
315.24815
313.64732
312.2823
311.09597
310.05023
309.11836
308.28092
307.52332
306.83433
306.20512
305.62861
305.09903
304.61164
304.16244
303.74807
303.36567
303.01275
302.68718
302.38706
302.11073
301.85674
301.62376
301.41062
301.21625
301.03971
300.8801
327.60365
322.88158
319.69654
317.30271
315.39013
313.80169
312.44703
311.26953
310.23137
309.30603
308.47425
307.72155
307.0368
306.41124
305.83785
305.31091
304.82572
304.37834
303.96542
303.58413
303.23202
302.90696
302.60709
302.33077
302.07654
301.8431
301.62929
301.43406
301.25646
301.09562
327.64593
322.96033
319.7998
317.42428
315.5262
313.94963
312.60494
311.43592
310.40504
309.48601
308.65969
307.91173
307.23108
306.60906
306.0387
305.51434
305.03131
304.58571
304.17422
303.79404
303.44274
303.11821
302.81861
302.54231
302.28788
302.05402
301.83958
301.64353
301.46492
301.30289
327.68644
323.03579
319.89876
317.5408
315.65661
314.09145
312.75633
311.59546
310.57159
309.65862
308.83757
308.09418
307.4175
306.79891
306.2315
305.70965
305.22873
304.78487
304.37479
303.99571
303.64521
303.32122
303.0219
302.74565
302.49104
302.2568
302.04177
301.84494
301.66537
301.50221
327.72526
323.10811
319.99361
317.65248
315.78163
314.22741
312.90147
311.74843
310.7313
309.82418
309.0082
308.26923
307.59638
306.98111
306.41655
305.89714
305.41828
304.97612
304.56743
304.18942
303.83973
303.51628
303.21726
302.94107
302.68631
302.45171
302.23613
302.03857
301.85808
301.69382
327.76248
323.17744
320.08453
317.75954
315.90148
314.35776
313.04064
311.89512
310.88447
309.98296
309.17188
308.43716
307.76802
307.15596
306.59417
306.07713
305.60026
305.15977
304.75242
304.37548
304.02658
303.70367
303.40496
303.12885
302.87396
302.63903
302.42293
302.22466
302.04329
301.87799
327.79815
323.24389
320.17169
317.86217
316.01638
314.48273
313.17408
312.03579
311.03137
310.13526
309.32888
308.59827
307.93271
307.32375
306.76464
306.24989
305.77496
305.33609
304.93006
304.55416
304.20605
303.88367
303.58527
303.30926
303.05425
302.81901
302.60243
302.40349
302.22128
302.05498
327.83235
323.3076
320.25524
317.96057
316.12654
314.60255
313.30203
312.17068
311.17224
310.28134
309.47949
308.75283
308.09071
307.48475
306.92823
306.4157
305.94266
305.50535
305.10061
304.72573
304.37838
304.05654
303.75845
303.48254
303.22744
302.99192
302.77487
302.57529
302.39229
302.22502
327.86513
323.36867
320.33534
318.0549
316.23215
314.71744
313.42472
312.30003
311.30735
310.42144
309.62395
308.9011
308.2423
307.63922
307.0852
306.57482
306.10361
305.66783
305.26434
304.89045
304.54385
304.22254
303.92476
303.64896
303.39378
303.15799
302.9405
302.74032
302.55655
302.38837
327.89655
323.42721
320.41213
318.14534
316.33341
314.8276
313.54236
312.42406
311.43691
310.5558
309.7625
309.04332
308.38772
307.78743
307.23582
306.72752
306.25807
305.82377
305.4215
305.04857
304.70271
304.38191
304.08444
303.80876
303.5535
303.31747
303.09957
302.89881
302.71431
302.54524
327.92667
323.48334
320.48575
318.23204
316.43049
314.93321
313.65515
312.543
311.56115
310.68466
309.89539
309.17973
308.52721
307.9296
307.38033
306.87402
306.40628
305.97342
305.57232
305.20034
304.85519
304.5349
304.23773
303.96217
303.70686
303.4706
303.2523
303.05099
302.86579
302.69588
327.95554
323.53713
320.55631
318.31515
316.52356
315.03446
313.76329
312.65703
311.68028
310.80822
310.02283
309.31056
308.661
308.06598
307.51895
307.01458
306.54848
306.117
305.71705
305.34597
305.00152
304.68173
304.38487
304.10943
303.85406
303.61759
303.39892
303.19708
303.01121
302.84049
327.98321
323.5887
320.62396
318.39483
316.61277
315.13153
313.86697
312.76637
311.7945
310.9267
310.14503
309.43602
308.78931
308.19678
307.65191
307.1494
306.6849
306.25476
305.8559
305.48571
305.14194
304.82263
304.52606
304.25075
303.99535
303.75867
303.53964
303.33731
303.1508
302.9793
328.00973
323.63812
320.68879
318.47119
316.69829
315.22457
313.96636
312.87118
311.90401
311.0403
310.2622
309.55632
308.91235
308.32222
307.77942
307.27871
306.81574
306.38689
305.98911
305.61977
305.27666
304.95781
304.66154
304.38635
304.13091
303.89405
303.67469
303.47188
303.28475
303.11251
328.03514
323.68549
320.75093
318.54438
316.78025
315.31375
314.06162
312.97165
312.00898
311.1492
310.37453
309.67166
309.03033
308.44249
307.9017
307.40272
306.94123
306.51363
306.11687
305.74836
305.40588
305.0875
304.79151
304.51645
304.26098
304.02393
303.80425
303.60099
303.41327
303.24032
328.05949
323.73088
320.81048
318.61453
316.85881
315.39923
314.15293
313.06795
312.1096
311.25358
310.48221
309.78222
309.14343
308.55781
308.01894
307.52163
307.06156
306.63515
306.23939
305.87168
305.52982
305.21188
304.91617
304.64123
304.38574
304.14852
303.92854
303.72484
303.53657
303.36293
328.08282
323.77437
320.86754
318.68174
316.93408
315.48114
314.24043
313.16024
312.20603
311.35363
310.58542
309.88821
309.25184
308.66835
308.13133
307.63562
307.17692
306.75167
306.35686
305.98993
305.64866
305.33115
305.03572
304.7609
304.50538
304.26801
304.04774
303.84363
303.65482
303.48053
328.10516
323.81603
320.9222
318.74614
317.0062
315.55962
314.32427
313.24867
312.29844
311.4495
310.68432
309.98978
309.35575
308.77429
308.23906
307.74488
307.2875
306.86337
306.46948
306.10329
305.7626
305.4455
305.15034
304.87564
304.62011
304.38259
304.16204
303.95753
303.76821
303.59329
328.12655
323.85594
320.97457
318.80783
317.0753
315.63481
314.40459
313.33339
312.38698
311.54136
310.7791
310.0871
309.45532
308.87582
308.3423
307.8496
307.39349
306.97043
306.57743
306.21195
305.87182
305.55512
305.26021
304.98563
304.73009
304.49243
304.27162
304.06673
303.87692
303.7014
328.14704
323.89416
321.02473
318.86692
317.14148
315.70683
314.48154
313.41456
312.47179
311.62936
310.86989
310.18035
309.55071
308.9731
308.44122
307.94994
307.49505
307.07302
306.68087
306.31609
305.97649
305.66018
305.36552
305.09106
304.8355
304.59771
304.37665
304.1714
303.98112
303.80503
328.16666
323.93076
321.07276
318.92351
317.20487
315.77581
314.55524
313.4923
312.55303
311.71366
310.95687
310.26967
309.6421
309.06629
308.53599
308.04607
307.59235
307.17131
306.77999
306.41587
306.07678
305.76085
305.46643
305.19208
304.93652
304.6986
304.4773
304.27171
304.08098
303.90434
328.18543
323.9658
321.11875
318.97769
317.26556
315.84186
314.62581
313.56674
312.63083
311.79439
311.04016
310.35522
309.72962
309.15555
308.62676
308.13815
307.68555
307.26546
306.87493
306.51145
306.17286
305.85729
305.5631
305.28886
305.03329
304.79526
304.57374
304.36781
304.17665
303.99949
328.20339
323.99934
321.16277
319.02957
317.32367
315.9051
314.69338
313.63802
312.70533
311.87169
311.11992
310.43714
309.81344
309.24103
308.71368
308.22634
307.77481
307.35564
306.96586
306.603
306.26489
305.94966
305.6557
305.38157
305.126
304.88785
304.66611
304.45987
304.2683
304.09063
328.22057
324.03144
321.20491
319.07922
317.37929
315.96563
314.75806
313.70625
312.77664
311.94568
311.19627
310.51556
309.89368
309.32287
308.79691
308.31077
307.86028
307.44198
307.05294
306.69066
306.35301
306.03812
305.74438
305.47035
305.21477
304.97652
304.75458
304.54804
304.35607
304.17793
328.23701
324.06215
321.24523
319.12674
317.43251
316.02357
314.81996
313.77156
312.84489
312.01651
311.26936
310.59063
309.97049
309.4012
308.87658
308.39159
307.9421
307.52464
307.13629
306.77458
306.43737
306.12281
305.82928
305.55535
305.29977
305.06142
304.83928
304.63246
304.44011
304.2615
328.25272
324.09153
321.2838
319.1722
317.48344
316.079
314.87919
313.83405
312.9102
312.08429
311.3393
310.66247
310.044
309.47617
308.95283
308.46895
308.0204
307.60375
307.21608
306.85491
306.51812
306.20387
305.91054
305.63671
305.38113
305.14269
304.92036
304.71326
304.52056
304.34151
328.26774
324.11962
321.3207
319.21568
317.53216
316.13203
314.93585
313.89383
312.97269
312.14913
311.40621
310.7312
310.11433
309.5479
309.02578
308.54296
308.09533
307.67945
307.29242
306.93178
306.5954
306.28144
305.98831
305.71457
305.459
305.22046
304.99796
304.7906
304.59755
304.41808
328.28209
324.14648
321.35598
319.25726
317.57875
316.18274
314.99005
313.951
313.03245
312.21115
311.47021
310.79694
310.1816
309.61652
309.09557
308.61377
308.16701
307.75187
307.36546
307.00532
306.66933
306.35566
306.06271
305.78907
305.53349
305.29487
305.0722
304.86459
304.67121
304.49134
328.2958
324.17215
321.38971
319.29702
317.6233
316.23124
315.04187
314.00568
313.0896
312.27046
311.53142
310.85981
310.24594
309.68214
309.16231
308.68148
308.23556
307.82113
307.43531
307.07565
306.74003
306.42664
306.13387
305.86032
305.60475
305.36604
305.14321
304.93536
304.74168
304.56142
328.30889
324.19669
321.42194
319.33502
317.66588
316.27759
315.0914
314.05795
313.14423
312.32716
311.58993
310.91992
310.30744
309.74488
309.22612
308.74623
308.30111
307.88736
307.5021
307.1429
306.80765
306.49452
306.20192
305.92846
305.67289
305.4341
305.21112
305.00304
304.80906
304.62843
328.32139
324.22012
321.45274
319.37133
317.70657
316.32189
315.13875
314.1079
313.19645
312.38136
311.64586
310.97737
310.36624
309.80485
309.28712
308.80812
308.36376
307.95066
307.56595
307.20719
306.87228
306.5594
306.26697
305.99359
305.73802
305.49917
305.27604
305.06774
304.87348
304.6925
328.33331
324.2425
321.48216
319.40602
317.74544
316.36421
315.18398
314.15562
313.24634
312.43314
311.69929
311.03227
310.42242
309.86215
309.34541
308.86726
308.42364
308.01116
307.62697
307.26863
306.93405
306.62141
306.32914
306.05584
305.80028
305.56135
305.33809
305.12958
304.93504
304.75373
328.34468
324.26386
321.51025
319.43915
317.78257
316.40463
315.22718
314.20121
313.29399
312.4826
311.75034
311.08471
310.47608
309.91689
309.40109
308.92375
308.48084
308.06896
307.68526
307.32733
306.99306
306.68066
306.38854
306.11532
305.85976
305.62077
305.39737
305.18867
304.99387
304.81223
328.35552
324.28425
321.53706
319.47077
317.81801
316.44322
315.26843
314.24474
313.3395
312.52983
311.79909
311.13479
310.52733
309.96917
309.45426
308.97771
308.53546
308.12415
307.74093
307.38338
307.04942
306.73724
306.44527
306.17212
305.91657
305.67752
305.45399
305.2451
305.05005
304.86812
328.36585
324.3037
321.56264
319.50095
317.85184
316.48006
315.3078
314.28629
313.38294
312.57491
311.84562
311.18259
310.57626
310.01908
309.50503
309.02922
308.58762
308.17685
307.79409
307.43691
307.10324
306.79127
306.49944
306.22636
305.97081
305.7317
305.50805
305.29899
305.1037
304.92147
328.37569
324.32224
321.58705
319.52974
317.88412
316.51521
315.34538
314.32594
313.42439
312.61794
311.89003
311.22822
310.62295
310.06671
309.55348
309.07838
308.63739
308.22715
307.84482
307.48799
307.1546
306.84284
306.55114
306.27813
306.02259
305.78342
305.55966
305.35042
305.15491
304.9724
328.38506
324.33992
321.61032
319.5572
317.9149
316.54873
315.38121
314.36376
313.46393
312.65898
311.93239
311.27174
310.66749
310.11215
309.5997
309.12529
308.68488
308.27514
307.89322
307.53673
307.2036
306.89204
306.60047
306.32752
306.07199
305.83277
305.6089
305.3995
305.20377
305.021
328.39398
324.35676
321.6325
319.58337
317.94425
316.5807
315.41538
314.39982
313.50163
312.69812
311.97279
311.31325
310.70997
310.15548
309.64379
309.17002
308.73017
308.3209
307.93939
307.58322
307.25034
306.93896
306.64752
306.37464
306.1191
305.87984
305.65586
305.44631
305.25038
305.06735
328.40246
324.3728
321.65363
319.60831
317.97222
316.61116
315.44795
314.43419
313.53757
312.73543
312.0113
311.35281
310.75047
310.19679
309.68581
309.21266
308.77335
308.36453
307.98339
307.62754
307.2949
306.9837
306.69237
306.41955
306.16403
305.92471
305.70064
305.49094
305.29481
305.11155
328.41052
324.38807
321.67375
319.63207
317.99886
316.64018
315.47898
314.46694
313.57181
312.77098
312.04799
311.39051
310.78905
310.23615
309.72585
309.2533
308.8145
308.40611
308.02533
307.66977
307.33736
307.02633
306.73512
306.46236
306.20684
305.96748
305.74331
305.53347
305.33716
305.15367
328.41817
324.4026
321.6929
319.65468
318.02423
316.66781
315.50852
314.49813
313.60442
312.80483
312.08293
311.42642
310.8258
310.27365
309.76399
309.292
308.85369
308.44571
308.06528
307.71
307.37781
307.06694
306.77584
306.50313
306.24762
306.00822
305.78396
305.57399
305.3775
305.19379
328.42544
324.41641
321.71112
319.6762
318.04837
316.69411
315.53664
314.52781
313.63546
312.83705
312.1162
311.4606
310.86079
310.30934
309.80031
309.32885
308.891
308.48342
308.10331
307.7483
307.41632
307.10561
306.81461
306.54196
306.28645
306.04701
305.82267
305.61257
305.41591
305.232
328.43234
324.42954
321.72844
319.69667
318.07133
316.71912
315.56339
314.55605
313.66499
312.86771
312.14785
311.49312
310.89408
310.3433
309.83486
309.36392
308.9265
308.5193
308.13951
307.78475
307.45297
307.14241
306.85151
306.57891
306.3234
306.08392
305.8595
305.64928
305.45247
305.26836
328.43888
324.44201
321.74491
319.71612
318.09315
316.74291
315.58883
314.5829
313.69307
312.89687
312.17795
311.52405
310.92573
310.3756
309.86772
309.39726
308.96027
308.55342
308.17393
307.81941
307.48783
307.17741
306.8866
306.61405
306.35855
306.11903
305.89454
305.68421
305.48724
305.30294
328.44507
324.45385
321.76054
319.7346
318.11389
316.76551
315.613
314.60842
313.71976
312.92458
312.20655
311.55344
310.95582
310.4063
309.89895
309.42896
308.99237
308.58586
308.20665
307.85237
307.52097
307.21068
306.91996
306.64746
306.39196
306.15241
305.92785
305.7174
305.5203
305.33582
328.45094
324.46508
321.77538
319.75214
318.13358
316.78697
315.63595
314.63266
313.74511
312.9509
312.23372
311.58136
310.98441
310.43546
309.92862
309.45907
309.02286
308.61667
308.23774
307.88367
307.55244
307.24228
306.95165
306.67919
306.42371
306.18413
305.95949
305.74895
305.55171
305.36706
328.45648
324.47572
321.78945
319.76878
318.15226
316.80733
315.65773
314.65566
313.76916
312.97588
312.25951
311.60787
311.01154
310.46315
309.95679
309.48766
309.0518
308.64593
308.26725
307.91339
307.58233
307.27229
306.98174
306.70933
306.45385
306.21424
305.98954
305.7789
305.58152
305.39672
328.46172
324.4858
321.80279
319.78456
318.16998
316.82664
315.67839
314.67747
313.79198
312.99957
312.28398
311.63301
311.03727
310.48941
309.9835
309.51477
309.07926
308.67368
308.29525
307.94159
307.61068
307.30076
307.01029
306.73792
306.48244
306.2428
306.01805
305.80731
305.60982
305.42486
328.46667
324.49534
321.81542
319.7995
318.18676
316.84494
315.69797
314.69814
313.8136
313.02202
312.30716
311.65684
311.06167
310.5143
310.00883
309.54048
309.1053
308.69999
308.32179
307.96832
307.63756
307.32775
307.03735
306.76502
306.50955
306.26989
306.04507
305.83425
305.63664
305.45154
328.47133
324.50436
321.82737
319.81364
318.20264
316.86226
315.7165
314.71772
313.83408
313.04329
312.32912
311.6794
311.08477
310.53787
310.03282
309.56483
309.12995
308.72491
308.34693
307.99364
307.66302
307.35332
307.06299
306.79069
306.53523
306.29554
306.07068
305.85977
305.66205
305.47682
328.47572
324.51287
321.83866
319.82701
318.21767
316.87864
315.73403
314.73623
313.85345
313.06341
312.3499
311.70076
311.10664
310.56018
310.05552
309.58787
309.15329
308.74849
308.37072
308.0176
307.68712
307.37752
307.08726
306.815
306.55954
306.31983
306.09491
305.88393
305.6861
305.50074
328.47986
324.52091
321.84932
319.83964
318.23186
316.89412
315.7506
314.75374
313.87176
313.08243
312.36954
311.72094
311.1273
310.58128
310.07698
309.60965
309.17535
308.77079
308.39322
308.04026
307.70991
307.4004
307.1102
306.83797
306.58252
306.34279
306.11782
305.90677
305.70885
305.52336
328.48374
324.52848
321.85938
319.85156
318.24525
316.90873
315.76624
314.77026
313.88905
313.10039
312.38808
311.74001
311.14682
310.60119
310.09725
309.63022
309.19618
308.79185
308.41446
308.06166
307.73143
307.42201
307.13187
306.85968
306.60423
306.36448
306.13947
305.92834
305.73033
305.54473
328.48737
324.5356
321.86885
319.86279
318.25788
316.92251
315.78099
314.78584
313.90536
313.11732
312.40557
311.75799
311.16523
310.61998
310.11637
309.64963
309.21584
308.81172
308.43451
308.08185
307.75173
307.4424
307.15232
306.88016
306.62472
306.38494
306.15989
305.9487
305.7506
305.5649
328.49078
324.5423
321.87776
319.87336
318.26976
316.93548
315.79488
314.80051
313.92071
313.13328
312.42205
311.77493
311.18258
310.63768
310.13438
309.66792
309.23436
308.83044
308.4534
308.10088
307.77086
307.46161
307.17159
306.89945
306.64402
306.40423
306.17914
305.96789
305.76971
305.5839
328.49396
324.54858
321.88613
319.88329
318.28094
316.94768
315.80794
314.81431
313.93516
313.14828
312.43755
311.79086
311.19889
310.65434
310.15133
309.68512
309.25179
308.84806
308.47117
308.11878
307.78887
307.47969
307.18972
306.91761
306.66218
306.42238
306.19725
305.98594
305.78769
305.60178
328.49693
324.55446
321.89397
319.8926
318.29142
316.95913
315.8202
314.82727
313.94872
313.16237
312.45211
311.80583
311.21422
310.66998
310.16726
309.70129
309.26816
308.8646
308.48787
308.1356
307.80578
307.49668
307.20676
306.93468
306.67925
306.43943
306.21427
306.00291
305.80458
305.61859
328.49968
324.55996
321.90132
319.90133
318.30124
316.96985
315.83169
314.83942
313.96144
313.17559
312.46576
311.81986
311.2286
310.68465
310.18219
309.71645
309.28351
308.88013
308.50353
308.15138
307.82165
307.51261
307.22274
306.95068
306.69527
306.45543
306.23024
306.01883
305.82043
305.63436
328.50224
324.56509
321.90817
319.90948
318.31043
316.97989
315.84244
314.85078
313.97333
313.18795
312.47853
311.833
311.24205
310.69839
310.19617
309.73064
309.29789
308.89466
308.51819
308.16615
307.83651
307.52753
307.2377
306.96567
306.71026
306.47041
306.24519
306.03373
305.83528
305.64912
328.5046
324.56986
321.91457
319.91709
318.319
316.98925
315.85247
314.86139
313.98444
313.1995
312.49046
311.84527
311.25462
310.71121
310.20922
309.74389
309.31132
308.90823
308.53189
308.17995
307.85039
307.54148
307.25168
306.97968
306.72427
306.48441
306.25916
306.04766
305.84914
305.66292
328.50678
324.57428
321.92051
319.92416
318.32697
316.99797
315.86182
314.87127
313.99479
313.21025
312.50158
311.8567
311.26632
310.72317
310.22139
309.75625
309.32383
308.92089
308.54466
308.19281
307.86333
307.55447
307.26472
306.99273
306.73733
306.49746
306.27218
306.06064
305.86208
305.67578
328.50878
324.57838
321.92601
319.93072