/*--------------------------------*- C++ -*----------------------------------*\
| =========                 |                                                 |
| \\      /  F ield         | OpenFOAM: The Open Source CFD Toolbox           |
|  \\    /   O peration     | Version:  2506                                  |
|   \\  /    A nd           | Website:  www.openfoam.com                      |
|    \\/     M anipulation  |                                                 |
\*---------------------------------------------------------------------------*/
FoamFile
{
    version     2.0;
    format      ascii;
    arch        "LSB;label=32;scalar=64";
    class       volScalarField;
    location    "9000/rock";
    object      T;
}
// * * * * * * * * * * * * * * * * * * * * * * * * * * * * * * * * * * * * * //

dimensions      [0 0 0 1 0 0 0];

internalField   nonuniform List<scalar> 
6000
(
315.50168
304.43439
298.74899
295.35214
293.12158
291.55973
290.41417
289.5439
288.86432
288.32179
287.88074
287.51673
287.21247
286.95537
286.73612
286.54767
286.38458
286.24263
286.11845
286.00937
285.9132
285.82814
285.75271
285.68564
285.62582
285.57226
285.524
285.48004
285.43917
285.39961
319.1189
308.3451
302.18677
298.28877
295.64319
293.75285
292.34786
291.27068
290.42394
289.74459
289.1902
288.73126
288.34671
288.02114
287.74304
287.50368
287.29631
287.11563
286.95745
286.81841
286.69576
286.58725
286.49101
286.40544
286.32916
286.26095
286.19966
286.14417
286.09327
286.04562
320.92516
310.89992
304.77233
300.69062
297.81797
295.71221
294.11818
292.87958
291.8961
291.10093
290.44807
289.905
289.44817
289.06017
288.72786
288.4412
288.19238
287.97525
287.78491
287.61742
287.46954
287.33864
287.22249
287.11923
287.02725
286.94514
286.87164
286.80556
286.74579
286.69129
322.02211
312.67512
306.74383
302.64683
299.67443
297.44241
295.7208
294.36338
293.27314
292.3836
291.64793
291.03235
290.512
290.06825
289.68693
289.35705
289.07003
288.81906
288.59868
288.40447
288.23282
288.08074
287.94574
287.82571
287.71887
287.62366
287.53873
287.46286
287.39498
287.33421
322.7823
313.98841
308.28904
304.25512
301.25974
298.96431
297.16335
295.72326
294.55322
293.5895
292.78623
292.10973
291.5348
291.04228
290.61741
290.24867
289.92695
289.64497
289.39687
289.17786
288.98403
288.81212
288.65942
288.52363
288.40281
288.2953
288.19966
288.11466
288.03925
287.97257
323.35546
315.01163
309.53645
305.59766
302.62234
300.3049
298.45998
296.96593
295.73882
294.71875
293.86187
293.13543
292.51458
291.98018
291.51729
291.11413
290.76132
290.45129
290.1779
289.93612
289.7218
289.53149
289.3623
289.21179
289.0779
288.95888
288.85323
288.75968
288.67717
288.60486
323.81222
315.84156
310.57089
306.73721
303.80467
301.49129
299.62725
298.10102
296.83519
295.77387
294.87566
294.10926
293.45057
292.88084
292.38528
291.95209
291.57179
291.23669
290.94049
290.67801
290.44494
290.2377
290.05327
289.88911
289.74307
289.61332
289.49831
289.39674
289.30752
289.22979
324.19048
316.53585
311.4487
307.72009
304.8414
302.54793
300.68166
299.13931
297.84907
296.75886
295.8298
295.03219
294.34296
293.74397
293.22077
292.76174
292.35745
292.0002
291.68365
291.40253
291.15246
290.92978
290.73137
290.55463
290.39734
290.25762
290.13387
290.02477
289.9292
289.84626
324.51267
317.13077
312.20804
308.58022
305.75994
303.49564
301.6384
300.09147
298.78776
297.67856
296.72733
295.90603
295.19269
294.5699
294.02369
293.54273
293.11776
292.74117
292.40665
292.10892
291.84357
291.6069
291.39576
291.2075
291.03985
290.89089
290.75902
290.64285
290.54125
290.4533
324.79305
317.65028
312.87546
309.34256
306.58172
304.35172
302.51083
300.96749
299.65852
298.53809
297.57179
296.73311
296.00121
295.35945
294.7944
294.2951
293.85254
293.45926
293.10902
292.79661
292.51765
292.26841
292.04575
291.84699
291.66984
291.51238
291.37294
291.25015
291.14285
291.05008
325.04115
318.11089
313.46989
310.02575
307.32345
305.13032
303.3104
301.77636
300.4682
299.34256
298.36689
297.51608
296.77034
296.1138
295.53361
295.01921
294.56187
294.15433
293.7905
293.46525
293.17425
292.91381
292.68078
292.47251
292.2867
292.12141
291.97497
291.84599
291.73328
291.63589
325.26361
318.52433
314.00521
310.64385
307.99823
305.84295
304.04681
302.52597
301.22308
300.09685
299.11634
298.25768
297.50206
296.83436
296.24225
295.71562
295.24605
294.82649
294.45103
294.11464
293.81308
293.54271
293.30043
293.08359
292.88991
292.71744
292.56453
292.42977
292.31196
292.21011
325.46522
318.89922
314.49178
311.20766
308.61643
306.49899
304.72821
303.22319
301.9288
300.80548
299.82369
298.96067
298.19847
297.52265
296.92143
296.3851
295.90555
295.47599
295.09068
294.74473
294.43398
294.15489
293.90438
293.67986
293.47906
293.30004
293.14116
293.001
292.87837
292.77225
325.64953
319.24203
314.93752
311.72559
309.18627
307.10609
305.36145
303.87394
302.59034
301.47257
300.49229
299.62771
298.86164
298.18027
297.57234
297.02851
296.54099
296.10323
295.70967
295.35559
295.03692
294.7502
294.49244
294.26106
294.05384
293.86886
293.70448
293.5593
293.43211
293.32191
325.81923
319.55772
315.34859
312.20427
309.7144
307.67054
305.95226
304.4833
303.21209
302.10184
301.12522
300.26131
299.49359
298.80884
298.19622
297.64679
297.15304
296.70868
296.30832
295.94739
295.62196
295.32864
295.0645
294.82703
294.61404
294.42365
294.25423
294.10437
293.97289
293.85875
325.97643
319.85018
315.72985
312.64902
310.20618
308.19755
306.50546
305.05564
303.79791
302.6966
301.72532
300.86383
300.09628
299.40991
298.79433
298.24092
297.74247
297.2929
296.88703
296.52041
296.18925
295.89024
295.62054
295.37769
295.15954
294.96424
294.79018
294.63598
294.50045
294.38256
326.12278
320.12251
316.08519
313.06413
310.66605
308.69142
307.02515
305.59469
304.35114
303.25983
302.29512
301.43747
300.67153
299.98502
299.36791
298.81191
298.31006
297.85651
297.44624
297.07497
296.739
296.43514
296.16062
295.91302
295.69027
295.49053
295.31223
295.154
295.01464
294.89315
326.25965
320.37722
316.41778
313.45312
311.09765
309.15577
307.51478
306.10369
304.87474
303.79413
302.83694
301.9842
301.22104
300.53559
299.91815
299.36073
298.85661
298.40013
297.98645
297.61143
297.27149
296.96352
296.68484
296.4331
296.20625
296.00251
295.82032
295.65833
295.51537
295.39043
326.38812
320.61634
316.73022
313.81891
311.50402
309.59365
307.97729
306.5854
305.37126
304.30184
303.35287
302.50587
301.74642
301.06299
300.44622
299.88836
299.38292
298.92442
298.5082
298.13023
297.78704
297.47564
297.19339
296.93803
296.70754
296.50019
296.31444
296.14897
296.00262
295.87437
326.50912
320.84158
317.02468
314.16393
311.88772
310.00765
308.41523
307.04226
305.84296
304.78503
303.84476
303.00413
302.24911
301.5685
300.95321
300.39573
299.88978
299.43005
299.01201
298.63179
298.28601
297.97176
297.68648
297.42797
297.19426
296.98365
296.79465
296.62595
296.47639
296.34498
326.62341
321.05435
317.30296
314.49023
312.25094
310.39998
308.83076
307.47634
306.29181
305.24553
304.31429
303.4805
302.73048
302.05331
301.44016
300.88374
300.37796
299.91766
299.49846
299.11659
298.76877
298.45219
298.16436
297.90312
297.66657
297.45304
297.26106
297.08935
296.93676
296.80232
326.73164
321.25585
317.56661
314.79955
312.59553
310.77253
309.22578
307.88949
306.71957
305.68498
304.76298
303.93636
303.19175
302.51853
301.90806
301.35327
300.84822
300.38791
299.96809
299.58509
299.23574
298.91728
298.62732
298.36373
298.12467
297.90851
297.7138
297.53928
297.38384
297.24649
326.83436
321.4471
317.81693
315.09338
312.92309
311.12695
309.60193
308.28331
307.12776
306.10482
305.19217
304.37295
303.63409
302.96518
302.35783
301.80512
301.30127
300.84143
300.42145
300.03777
299.68731
299.36738
299.07565
298.81005
298.56879
298.35025
298.15305
297.97592
297.81778
297.67764
326.93204
321.62899
318.05505
315.373
313.23498
311.46467
309.96064
308.65921
307.51777
306.50637
305.6031
304.79143
304.05853
303.39424
302.79033
302.24007
301.73782
301.27884
300.85909
300.47512
300.12391
299.80286
299.50968
299.24237
298.99917
298.7785
298.579
298.39944
298.23874
298.09594
327.02509
321.80225
318.28194
315.63955
313.53244
311.78694
310.30318
309.01844
307.8908
306.89079
305.99687
305.19281
304.46603
303.80657
303.20638
302.65886
302.15852
301.70073
301.28155
300.8976
300.54596
300.22409
299.92975
299.66099
299.41608
299.1935
298.9919
298.81007
298.64694
298.50158
327.11387
321.96756
318.49846
315.89398
313.81649
312.09487
310.63067
309.36213
308.24796
307.25914
306.3745
305.57806
304.85749
304.20301
303.60673
303.06219
302.56401
302.10768
301.68934
301.3057
300.9539
300.63146
300.33621
300.06622
299.81982
299.59552
299.39198
299.20802
299.0426
298.89478
327.19869
322.12549
318.70534
316.13716
314.08809
312.38942
310.9441
309.69126
308.59021
307.61236
306.73688
305.94805
305.23373
304.58433
303.9921
303.45071
302.9549
302.50024
302.08297
301.69987
301.34814
301.02536
300.7294
300.45839
300.21069
299.98483
299.7795
299.59356
299.42596
299.27578
327.27981
322.27655
318.90325
316.36985
314.34805
312.67146
311.24436
310.00673
308.91844
307.95133
307.08486
306.30356
305.5955
304.95123
304.36315
303.82505
303.33176
302.87896
302.46294
302.08057
301.7291
301.40617
301.10969
300.83784
300.58899
300.36172
300.15475
299.96694
299.79727
299.64482
327.35749
322.42118
319.09276
316.59271
314.59711
312.94177
311.53225
310.30934
309.23345
308.27682
307.41919
306.64534
305.9435
305.30438
304.72052
304.1858
303.69515
303.24433
302.82973
302.44824
302.0972
301.77427
301.47743
301.20488
300.95504
300.7265
300.51801
300.32844
300.1568
300.00218
327.43194
322.55979
319.2744
316.80636
314.83593
313.20104
311.80848
310.59981
309.53597
308.58955
307.74058
306.97406
306.27838
305.64441
305.06478
304.53351
304.04559
303.59687
303.18379
302.80331
302.45283
302.13005
301.83299
301.55988
301.30917
301.07947
300.86957
300.67835
300.50484
300.34813
327.50334
322.69274
319.44864
317.01134
315.0651
313.4499
312.07371
310.87882
309.82665
308.89017
308.04967
307.29034
306.60074
305.97188
305.3965
304.8687
304.38358
303.93703
303.52557
303.14622
302.7964
302.47388
302.17671
301.90315
301.65168
301.42094
301.20973
301.01696
300.84165
300.68293
327.57189
322.82035
319.6159
317.20812
315.28516
313.68893
312.32853
311.14695
310.1061
309.17929
308.34705
307.59476
306.91116
306.28735
305.7162
305.19189
304.70959
304.26527
303.8555
303.47735
303.12829
302.80613
302.50894
302.23503
301.9829
301.75122
301.53879
301.34455
301.16754
301.00688
327.63773
322.94292
319.77656
317.39717
315.49659
313.91864
312.57347
311.40476
310.37488
309.45746
308.63326
307.88787
307.21015
306.59133
306.02437
305.50354
305.02409
304.58203
304.174
303.79711
303.44889
303.12716
302.83005
302.55587
302.30316
302.07062
301.85705
301.66142
301.48278
301.32027
327.701
323.06071
319.93096
317.57887
315.69985
314.1395
312.80903
311.65276
310.63351
309.72519
308.90883
308.17016
307.4982
306.88428
306.32147
305.8041
305.32749
304.88772
304.48147
304.10589
303.75856
303.43733
303.14035
302.86599
302.61278
302.37944
302.16481
301.96787
301.78767
301.62337
327.76184
323.17396
320.07943
317.7536
315.89533
314.35195
313.03566
311.89142
310.88244
309.98297
309.17422
308.44211
307.77578
307.16668
306.60795
306.094
305.62022
305.18274
304.77828
304.40406
304.05766
303.73698
303.4402
303.1657
302.91206
302.678
302.46238
302.26419
302.0825
301.91647
327.82036
323.28291
320.22225
317.92171
316.08342
314.55639
313.25379
312.12116
311.12213
310.23123
309.42988
308.70415
308.04332
307.43893
306.88421
306.37365
305.90267
305.46748
305.06483
304.69197
304.34653
304.02645
303.72991
303.45534
303.20131
302.96659
302.75004
302.55066
302.36755
302.19987
327.87668
323.38775
320.35969
318.0835
316.26446
314.7532
313.4638
312.34239
311.35299
310.47038
309.67621
308.9567
308.30123
307.70145
307.15066
306.64342
306.17522
305.7423
305.34145
304.96998
304.62553
304.30607
304.00982
303.73521
303.48085
303.24552
303.02809
302.82759
302.64311
302.47383
327.9309
323.48867
320.49201
318.23926
316.43877
314.94272
313.66606
312.55549
311.57539
310.70083
309.91362
309.20014
308.54989
307.95461
307.40768
306.9037
306.43823
306.00755
305.60851
305.23842
304.89497
304.57616
304.28022
304.00562
303.75097
303.51508
303.29683
303.09525
302.90946
302.73864
327.98312
323.58586
320.61943
318.38926
316.60666
315.12526
313.8609
312.76079
311.7897
310.92292
310.14247
309.43485
308.78968
308.19878
307.65561
307.15483
306.69205
306.26358
305.86632
305.49761
305.15518
304.83703
304.54143
304.26686
304.01197
303.77555
303.55653
303.35393
303.16688
302.99458
328.03341
323.67947
320.74217
318.53376
316.76839
315.30113
314.04863
312.95864
311.99625
311.137
310.36309
309.66116
309.02093
308.4343
307.8948
307.39715
306.937
306.51071
306.11521
305.74788
305.40646
305.08898
304.79375
304.51924
304.26413
304.02723
303.80747
303.60389
303.41563
303.24191
328.08187
323.76966
320.86042
318.67299
316.92423
315.47061
314.22956
313.14934
312.19536
311.3434
310.57583
309.87941
309.24398
308.6615
308.12558
307.63098
307.17341
306.74926
306.35549
305.98952
305.64911
305.33231
305.03745
304.76303
304.50773
304.27038
304.04992
303.84542
303.656
303.4809
328.12857
323.85657
320.97438
318.80716
317.07443
315.63396
314.40397
313.33317
312.38732
311.54241
310.78098
310.08991
309.45912
308.88069
308.34824
307.85663
307.40158
306.97952
306.58746
306.22283
305.88342
305.56731
305.27283
304.99851
304.74305
304.50528
304.28416
304.07876
303.88823
303.71181
328.17358
323.94034
321.08422
318.9365
317.21921
315.79143
314.5721
313.51042
312.57242
311.73433
310.97883
310.29295
309.66668
309.09216
308.5631
308.07439
307.62179
307.20179
306.8114
306.44809
306.10967
305.79424
305.50016
305.22596
304.97035
304.73219
304.51044
304.30419
304.11259
303.93489
328.21697
324.02109
321.19011
319.06118
317.35879
315.94325
314.73422
313.68133
312.75092
311.91942
311.16967
310.48881
309.86691
309.2962
308.77043
308.28454
307.83434
307.41634
307.02759
306.66557
306.32813
306.01338
305.71969
305.44562
305.18989
304.95136
304.72902
304.52195
304.32933
304.15038
328.2588
324.09895
321.2922
319.18139
317.49337
316.08965
314.89056
313.84615
312.92308
312.09795
311.35376
310.67775
310.0601
309.49308
308.97051
308.48736
308.0395
307.62345
307.2363
306.87555
306.53907
306.22499
305.9317
305.65777
305.40193
305.16306
304.94015
304.73229
304.53867
304.35855
328.29914
324.17402
321.39064
319.29731
317.62316
316.23083
315.04133
314.00512
313.08913
312.27016
311.53135
310.86005
310.2465
309.68305
309.16358
308.6831
308.23751
307.82336
307.43777
307.07827
306.74273
306.42932
306.13642
305.86263
305.6067
305.3675
305.14405
304.93545
304.74088
304.5596
328.33804
324.24642
321.48557
319.4091
317.74832
316.36699
315.18675
314.15846
313.24931
312.43629
311.70268
311.03592
310.42635
309.86637
309.34991
308.87202
308.42863
308.01634
307.63227
307.27398
306.93936
306.6266
306.3341
306.06046
305.80445
305.56495
305.34098
305.13166
304.93617
304.75378
328.37555
324.31624
321.57713
319.51692
317.86904
316.49832
315.32702
314.30637
313.40383
312.59657
311.86798
311.20562
310.5999
310.04328
309.52973
309.05435
308.6131
308.20261
307.82002
307.46291
307.1292
306.81708
306.52497
306.25149
305.9954
305.75562
305.53116
305.32114
305.12477
304.94132
328.41173
324.38359
321.66544
319.62092
317.98549
316.62501
315.46232
314.44906
313.5529
312.75119
312.02747
311.36936
310.76736
310.21399
309.70327
309.23033
308.79115
308.38241
308.00126
307.64531
307.31248
307.00099
306.70927
306.43594
306.17979
305.93973
305.7148
305.50411
305.30689
305.12241
328.44663
324.44854
321.75062
319.72124
318.09781
316.74721
315.59285
314.58671
313.69671
312.90038
312.18135
311.52735
310.92896
310.37873
309.87074
309.40016
308.96301
308.55596
308.17621
307.82138
307.48942
307.17854
306.8872
306.61403
306.35782
306.11751
305.89212
305.6808
305.48276
305.29728
328.4803
324.5112
321.83279
319.81801
318.20617
316.8651
315.71878
314.71952
313.83547
313.04432
312.32982
311.67981
311.08489
310.53771
310.03237
309.56408
309.12888
308.72347
308.34509
307.99135
307.66022
307.34994
307.05898
306.78596
306.52971
306.28915
306.06333
305.85139
305.65256
305.46613
328.51277
324.57164
321.91206
319.91136
318.3107
316.97884
315.84027
314.84764
313.96934
313.1832
312.47309
311.82691
311.23537
310.69113
310.18836
309.72227
309.28897
308.88516
308.50809
308.15541
307.8251
307.51541
307.22481
306.95195
306.69566
306.45487
306.22863
306.0161
305.81651
305.62916
328.54409
324.62995
321.98852
320.00141
318.41154
317.08856
315.95747
314.97126
314.0985
313.3172
312.61132
311.96886
311.38057
310.83919
310.33889
309.87495
309.44347
309.04121
308.66543
308.31378
307.98426
307.67514
307.3849
307.1122
306.85587
306.61485
306.38822
306.17512
305.9748
305.78655
328.5743
324.6862
322.06229
320.08829
318.50883
317.19442
316.07055
315.09052
314.22312
313.44649
312.74471
312.10584
311.52069
310.98206
310.48416
310.02229
309.59259
309.19183
308.81729
308.46664
308.13789
307.82932
307.53943
307.26689
307.01052
306.7693
306.54228
306.32864
306.12761
305.9385
328.60345
324.74046
322.13345
320.17211
318.60269
317.29654
316.17965
315.20559
314.34336
313.57124
312.87341
312.238
311.6559
311.11993
310.62435
310.16449
309.7365
309.33719
308.96385
308.61417
308.28617
307.97814
307.68859
307.4162
307.15981
306.91839
306.691
306.47683
306.27512
306.08518
328.63156
324.7928
322.2021
320.25296
318.69324
317.39507
316.2849
315.31661
314.45938
313.69161
312.99759
312.36553
311.78637
311.25297
310.75963
310.30171
309.87539
309.47748
309.1053
308.75656
308.42929
308.12178
307.83256
307.56032
307.30391
307.06229
306.83456
306.61988
306.41751
306.22677
328.65868
324.84329
322.26833
320.33097
318.78059
317.49013
316.38645
315.42372
314.5713
313.80774
313.1174
312.48858
311.91226
311.38134
310.89017
310.43412
310.00941
309.61286
309.24181
308.89398
308.56741
308.26042
307.97152
307.69943
307.44299
307.20119
306.97311
306.75795
306.55494
306.36344
328.68483
324.892
322.33222
320.40622
318.86487
317.58183
316.48442
315.52706
314.67929
313.91979
313.23301
312.60731
312.03373
311.50521
311.01613
310.5619
310.13874
309.74351
309.37355
309.02659
308.70071
308.39421
308.10563
307.83368
307.57722
307.33524
307.10684
306.89121
306.68759
306.49534
328.71005
324.93898
322.39384
320.47881
318.94617
317.67029
316.57893
315.62675
314.78347
314.02789
313.34454
312.72186
312.15092
311.62473
311.13767
310.68519
310.26353
309.86957
309.50067
309.15456
308.82934
308.52332
308.23504
307.96324
307.70676
307.46462
307.2359
307.01981
306.81561
306.62264
328.73438
324.9843
322.45329
320.54883
319.02459
317.75564
316.67011
315.72293
314.88398
314.13218
313.45215
312.83238
312.264
311.74004
311.25493
310.80415
310.38395
309.99121
309.62333
309.27805
308.95346
308.64791
308.35993
308.08826
307.83177
307.58947
307.36045
307.14392
306.93915
306.74549
328.75784
325.02801
322.51063
320.61638
319.10024
317.83796
316.75806
315.8157
314.98094
314.23278
313.55596
312.93899
312.37308
311.85129
311.36807
310.91892
310.50012
310.10858
309.74168
309.3972
309.07323
308.76812
308.48043
308.2089
307.9524
307.70994
307.48063
307.26368
307.05837
306.86403
328.78046
325.07017
322.56594
320.68153
319.17321
317.91737
316.8429
315.9052
315.07447
314.32984
313.6561
313.04185
312.47832
311.95862
311.47722
311.02965
310.6122
310.22181
309.85586
309.51215
309.18878
308.88411
308.5967
308.3253
308.06878
307.82618
307.59659
307.37924
307.17339
306.97841
328.80226
325.11083
322.61928
320.74437
319.24359
317.99396
316.92473
315.99152
315.16469
314.42345
313.75269
313.14106
312.57984
312.06215
311.58251
311.13647
310.72033
310.33104
309.96602
309.62305
309.30026
308.99601
308.70887
308.4376
308.18107
307.93832
307.70847
307.49072
307.28437
307.08877
328.82329
325.15003
322.67072
320.80497
319.31147
318.06783
317.00366
316.07478
315.25171
314.51375
313.84587
313.23676
312.67776
312.16202
311.68408
311.2395
310.82463
310.43642
310.07228
309.73004
309.40781
309.10396
308.81709
308.54593
308.2894
308.04652
307.8164
307.59828
307.39144
307.19524
328.84356
325.18783
322.72033
320.86342
319.37693
318.13907
317.07978
316.15508
315.33563
314.60084
313.93573
313.32907
312.7722
312.25834
311.78204
311.33889
310.92524
310.53806
310.17478
309.83324
309.51155
309.2081
308.92147
308.65044
308.3939
308.15088
307.92052
307.70204
307.49472
307.29794
328.86309
325.22428
322.76816
320.91977
319.44006
318.20777
317.15318
316.23252
315.41656
314.68483
314.0224
313.41809
312.86329
312.35124
311.87652
311.43474
311.02227
310.63609
310.27365
309.93277
309.6116
309.30853
309.02216
308.75124
308.49469
308.25155
308.02095
307.80211
307.59434
307.397
328.88192
325.25942
322.81428
320.97411
319.50092
318.27402
317.22396
316.30719
315.49461
314.76582
314.10597
313.50393
312.95113
312.44083
311.96764
311.52718
311.11585
310.73063
310.36899
310.02876
309.7081
309.4054
309.11926
308.84845
308.5919
308.34864
308.11781
307.89863
307.69042
307.49254
328.90006
325.29329
322.85874
321.0265
319.55961
318.33789
317.29221
316.37919
315.56986
314.84391
314.18655
313.5867
313.03583
312.52721
312.0555
311.61632
311.20609
310.8218
310.46093
310.12133
309.80116
309.49881
309.2129
308.9422
308.68565
308.44227
308.21121
307.99172
307.78308
307.58468
328.91753
325.32594
322.9016
321.077
319.61618
318.39947
317.35801
316.44861
315.64241
314.9192
314.26425
313.66651
313.11749
312.61051
312.14021
311.70227
311.29309
310.9097
310.54958
310.21059
309.89088
309.58888
309.30319
309.0326
308.77604
308.53255
308.30128
308.08147
307.87243
307.67353
328.93437
325.3574
322.94291
321.12568
319.67072
318.45882
317.42143
316.51552
315.71235
314.99178
314.33915
313.74345
313.19622
312.6908
312.22188
311.78513
311.37697
310.99445
310.63505
310.29664
309.97739
309.67572
309.39024
309.11976
308.86319
308.61959
308.38812
308.16801
307.95857
307.75919
328.95058
325.38772
322.98272
321.1726
319.72328
318.51603
317.48257
316.58002
315.77977
315.06174
314.41134
313.81761
313.27211
312.76821
312.30061
311.865
311.45783
311.07614
310.71744
310.37959
310.06078
309.75943
309.47416
309.20378
308.94721
308.70351
308.47183
308.25143
308.04161
307.84177
328.9662
325.41693
323.02108
321.21781
319.77393
318.57117
317.54148
316.64218
315.84474
315.12917
314.48093
313.88909
313.34525
312.84281
312.37649
311.94198
311.53577
311.15488
310.79685
310.45955
310.14116
309.84012
309.55505
309.28476
309.02819
308.78439
308.55252
308.33184
308.12166
307.92136
328.98123
325.44506
323.05803
321.26137
319.82273
318.62429
317.59825
316.70208
315.90735
315.19415
314.54798
313.95796
313.41573
312.9147
312.44961
312.01617
311.61087
311.23077
310.87338
310.5366
310.21862
309.91788
309.63301
309.36281
309.10623
308.86234
308.63029
308.40933
308.1988
307.99807
328.9957
325.47216
323.09363
321.30333
319.86975
318.67548
317.65295
316.75979
315.96767
315.25675
314.61258
314.02433
313.48364
312.98397
312.52006
312.08766
311.68324
311.30389
310.94712
310.61085
310.29326
309.99281
309.70812
309.43801
309.18143
308.93745
308.70522
308.48401
308.27313
308.07199
329.00963
325.49826
323.12792
321.34375
319.91504
318.72478
317.70564
316.81538
316.02578
315.31706
314.67482
314.08826
313.54907
313.0507
312.58794
312.15652
311.75296
311.37433
311.01816
310.68238
310.36517
310.06499
309.78049
309.51047
309.25389
309.00981
308.77742
308.55595
308.34475
308.14321
329.02303
325.52338
323.16093
321.38267
319.95866
318.77226
317.75638
316.86892
316.08175
315.37515
314.73477
314.14984
313.61209
313.11498
312.65332
312.22286
311.82012
311.44218
311.0866
310.75128
310.43444
310.13453
309.8502
309.58026
309.32368
309.07952
308.84696
308.62525
308.41374
308.21181
329.03592
325.54757
323.19272
321.42015
320.00066
318.81798
317.80525
316.92048
316.13564
315.43108
314.7925
314.20915
313.67277
313.17688
312.71628
312.28674
311.88479
311.50752
311.1525
310.81764
310.50115
310.2015
309.91733
309.64748
309.39089
309.14665
308.91393
308.692
308.48018
308.27788
329.04832
325.57084
323.22331
321.45623
320.04109
318.862
317.85229
316.97012
316.18753
315.48494
314.84807
314.26624
313.7312
313.23648
312.7769
312.34825
311.94706
311.57044
311.21595
310.88153
310.56538
310.26598
309.98197
309.7122
309.45561
309.21129
308.97842
308.75626
308.54415
308.34149
329.06024
325.59324
323.25276
321.49095
320.08
318.90437
317.89757
317.01789
316.23748
315.53678
314.90157
314.3212
313.78744
313.29385
312.83525
312.40746
312.007
311.63101
311.27704
310.94303
310.62721
310.32805
310.0442
309.7745
309.51791
309.27352
309.0405
308.81813
308.60574
308.40273
329.0717
325.61478
323.28108
321.52435
320.11744
318.94513
317.94114
317.06387
316.28554
315.58666
314.95306
314.37409
313.84157
313.34906
312.89141
312.46444
312.06469
311.68929
311.33583
311.00222
310.68672
310.38779
310.10409
309.83446
309.57787
309.33341
309.10025
308.87767
308.66501
308.46167
329.08271
325.63549
323.30833
321.55649
320.15346
318.98435
317.98306
317.10811
316.33178
315.63466
315.00259
314.42498
313.89365
313.40218
312.94545
312.51926
312.1202
311.74538
311.39239
311.05918
310.74398
310.44527
310.16172
309.89216
309.63557
309.39103
309.15774
308.93496
308.72204
308.51838
329.09329
325.6554
323.33452
321.58739
320.1881
319.02207
318.02337
317.15065
316.37626
315.68082
315.05024
314.47393
313.94374
313.45328
312.99742
312.572
312.17359
311.79932
311.4468
311.11396
310.79905
310.50056
310.21714
309.94765
309.69106
309.44646
309.21304
308.99007
308.77689
308.57293
329.10344
325.67454
323.3597
321.61709
320.2214
319.05833
318.06213
317.19155
316.41902
315.72521
315.09605
314.52099
313.99191
313.50241
313.0474
312.62271
312.22492
311.85119
311.49911
311.16664
310.85202
310.55372
310.27045
310.00102
309.74443
309.49976
309.26621
309.04306
308.82965
308.62539
329.11319
325.69292
323.3839
321.64564
320.2534
319.09318
318.09939
317.23087
316.46012
315.76787
315.14008
314.56623
314.0382
313.54964
313.09544
312.67145
312.27427
311.90106
311.54941
311.21728
310.90293
310.60483
310.32168
310.05232
309.79573
309.551
309.31733
309.094
308.88036
308.67582
329.12255
325.71058
323.40714
321.67307
320.28415
319.12667
318.13519
317.26865
316.49962
315.80887
315.1824
314.6097
314.08269
313.59502
313.1416
312.71829
312.3217
311.94898
311.59774
311.26594
310.95185
310.65395
310.37092
310.10162
309.84503
309.60024
309.36646
309.14296
308.92909
308.72428
329.13152
325.72753
323.42946
321.6994
320.31368
319.15883
318.16957
317.30493
316.53755
315.84824
315.22304
314.65146
314.12543
313.63861
313.18594
312.76329
312.36725
311.99501
311.64416
311.31269
310.99885
310.70113
310.41822
310.14898
309.89238
309.64754
309.41365
309.18998
308.97591
308.77083
329.14012
325.74379
323.45088
321.72469
320.34203
319.1897
318.20257
317.33977
316.57397
315.88605
315.26206
314.69155
314.16646
313.68047
313.22852
312.80649
312.41099
312.0392
311.68874
311.35757
311.04397
310.74643
310.46364
310.19445
309.93786
309.69296
309.45896
309.23514
309.02086
308.81553
329.14836
325.75939
323.47143
321.74894
320.36923
319.21933
318.23425
317.37319
316.60892
315.92233
315.29951
314.73002
314.20584
313.72064
313.26938
312.84795
312.45297
312.08162
311.73152
311.40065
311.08728
310.78991
310.50723
310.23809
309.9815
309.73655
309.50245
309.27848
309.064
308.85843
329.15625
325.77434
323.49113
321.7722
320.39531
319.24774
318.26462
317.40526
316.64245
315.95713
315.33543
314.76693
314.24361
313.75917
313.30858
312.88772
312.49324
312.12231
311.77256
311.44198
311.12883
310.83162
310.54904
310.27996
310.02337
309.77837
309.54417
309.32006
309.10539
308.89959
329.1638
325.78866
323.51001
321.7945
320.42032
319.27498
318.29375
317.436
316.67459
315.9905
315.36987
314.80231
314.27982
313.79612
313.34616
312.92586
312.53185
312.16132
311.81191
311.4816
311.16866
310.87161
310.58914
310.3201
310.06351
309.81846
309.58417
309.35992
309.14507
308.93905
329.17103
325.80237
323.5281
321.81585
320.44427
319.30108
318.32165
317.46545
316.70538
316.02247
315.40287
314.83622
314.31452
313.83152
313.38217
312.9624
312.56885
312.19871
311.84962
311.51957
311.20684
310.90993
310.62756
310.35857
310.10198
309.85689
309.6225
309.39812
309.1831
308.97686
329.17793
325.8155
323.54541
321.83629
320.46721
319.32606
318.34836
317.49365
316.73487
316.05308
315.43447
314.86868
314.34775
313.86542
313.41665
312.99739
312.60428
312.23451
311.88573
311.55593
311.24339
310.94663
310.66435
310.39541
310.13882
309.89368
309.65921
309.43471
309.21952
309.01308
329.18452
325.82804
323.56196
321.85585
320.48915
319.34997
318.37392
317.52063
316.76309
316.08237
315.46471
314.89975
314.37955
313.89786
313.44966
313.03088
312.63818
312.26877
311.92029
311.59073
311.27838
310.98175
310.69956
310.43067
310.17408
309.9289
309.69435
309.46972
309.25437
309.04774
329.19081
325.84003
323.57778
321.87454
320.51012
319.37282
318.39836
317.54643
316.79007
316.11038
315.49362
314.92946
314.40996
313.92888
313.48121
313.06291
312.67061
312.30153
311.95333
311.624
311.31184
311.01534
310.73324
310.46439
310.20779
309.96258
309.72795
309.5032
309.2877
309.08088
329.19681
325.85148
323.59289
321.8924
320.53016
319.39465
318.42171
317.57108
316.81584
316.13714
315.52124
314.95785
314.43902
313.95852
313.51137
313.0935
312.70159
312.33284
311.98491
311.6558
311.3438
311.04744
310.76541
310.4966
310.24001
309.99476
309.76005
309.5352
309.31955
309.11256
329.20252
325.86239
323.60731
321.90944
320.54928
319.41549
318.444
317.5946
316.84044
316.16268
315.54761
314.98494
314.46675
313.98682
313.54015
313.12272
312.73117
312.36273
312.01506
311.68616
311.37432
311.07808
310.79613
310.52736
310.27077
310.02548
309.7907
309.56574
309.34996
309.14279
329.20795
325.87279
323.62105
321.92568
320.56751
319.43535
318.46524
317.61704
316.86391
316.18704
315.57276
315.01078
314.4932
314.0138
313.56761
313.15058
312.75938
312.39123
312.04381
311.71511
311.40343
311.1073
310.82543
310.5567
310.30011
310.05478
309.81994
309.59488
309.37897
309.17163
329.21311
325.88268
323.63413
321.94114
320.58487
319.45428
318.48548
317.63841
316.88626
316.21025
315.59672
315.0354
314.5184
314.03951
313.59376
313.17712
312.78625
312.41839
312.0712
311.7427
311.43117
311.13515
310.85335
310.58465
310.32806
310.0827
309.84779
309.62264
309.4066
309.19911
329.21801
325.89208
323.64656