/*--------------------------------*- C++ -*----------------------------------*\
| =========                 |                                                 |
| \\      /  F ield         | OpenFOAM: The Open Source CFD Toolbox           |
|  \\    /   O peration     | Version:  2506                                  |
|   \\  /    A nd           | Website:  www.openfoam.com                      |
|    \\/     M anipulation  |                                                 |
\*---------------------------------------------------------------------------*/
FoamFile
{
    version     2.0;
    format      ascii;
    arch        "LSB;label=32;scalar=64";
    class       volScalarField;
    location    "5000/rock";
    object      T;
}
// * * * * * * * * * * * * * * * * * * * * * * * * * * * * * * * * * * * * * //

dimensions      [0 0 0 1 0 0 0];

internalField   nonuniform List<scalar> 
6000
(
315.4954
304.4227
298.73366
295.33408
293.10136
291.53773
290.39066
289.5191
288.83841
288.29491
287.853
287.48824
287.18332
286.92564
286.70589
286.517
286.35354
286.21127
286.08684
285.97754
285.88121
285.79604
285.72054
285.65344
285.59363
285.54011
285.49194
285.44811
285.40739
285.36802
319.11083
308.33007
302.16706
298.26556
295.61719
293.72456
292.31764
291.2388
290.39063
289.71002
289.15453
288.69462
288.30923
287.98291
287.70417
287.46425
287.25639
287.07531
286.9168
286.77749
286.65463
286.54598
286.44964
286.36403
286.28776
286.21961
286.15844
286.1031
286.05241
286.005
320.9153
310.88155
304.74825
300.66225
297.7862
295.67763
294.08125
292.84062
291.85539
291.05868
290.40448
289.86023
289.40237
289.01345
288.68035
288.39301
288.1436
287.92598
287.73523
287.56741
287.41928
287.28819
287.17193
287.06862
286.97666
286.89463
286.82126
286.75538
286.69585
286.64164
322.01046
312.65342
306.71537
302.61331
299.63689
297.40156
295.67716
294.31734
293.22503
292.33369
291.59642
290.97945
290.45787
290.01306
289.6308
289.30011
289.01239
288.76084
288.53998
288.34538
288.17343
288.02113
287.886
287.76592
287.65909
287.56398
287.4792
287.40356
287.33597
287.27555
322.76885
313.96337
308.25621
304.21645
301.21643
298.91719
297.11301
295.67016
294.49772
293.53191
292.72682
292.04871
291.47236
290.97861
290.55266
290.18299
289.86047
289.57781
289.32915
289.1097
288.91552
288.74336
288.5905
288.45465
288.33386
288.22645
288.131
288.04626
287.97118
287.90491
323.34021
314.98326
309.49924
305.55385
302.57327
300.25151
298.40294
296.90576
295.67594
294.65351
293.79455
293.0663
292.44385
291.90804
291.44393
291.03972
290.686
290.37521
290.10118
289.85889
289.64418
289.45359
289.28422
289.13364
288.99978
288.88088
288.77544
288.68219
288.60006
288.5282
323.79518
315.80986
310.52933
306.68826
303.74986
301.43165
299.56352
298.03381
296.76494
295.70098
294.80046
294.03202
293.37155
292.80026
292.30333
291.86896
291.48765
291.15169
290.85478
290.59173
290.35823
290.15067
289.96605
289.80181
289.6558
289.52618
289.4114
289.31016
289.22137
289.14416
324.17165
316.50082
311.40278
307.66601
304.78084
302.48203
300.61126
299.06505
297.77147
296.67834
295.74672
294.94686
294.25566
293.65494
293.13024
292.6699
292.26449
291.9063
291.58896
291.30722
291.05667
290.83364
290.63502
290.45819
290.30093
290.16135
290.03787
289.92913
289.83402
289.75166
324.49205
317.09242
312.15777
308.52101
305.69365
303.42351
301.56134
300.01019
298.70281
297.59042
296.63639
295.81262
295.09713
294.47245
293.92459
293.4422
293.01601
292.63839
292.303
292.00458
291.73871
291.50166
291.29029
291.10193
290.93431
290.78552
290.65392
290.53815
290.43707
290.34975
324.77064
317.60862
312.82084
309.27825
306.5097
304.27336
302.42711
300.87919
299.56624
298.44234
297.473
296.63165
295.8974
295.25359
294.68675
294.1859
293.74201
293.3476
292.99643
292.68328
292.40374
292.15409
291.93118
291.73231
291.5552
291.3979
291.25878
291.13642
291.02968
290.93759
325.01695
318.06592
313.41094
309.95633
307.24572
305.04575
303.22004
301.68105
300.36861
299.23922
298.26027
297.40657
296.6583
295.99954
295.41742
294.90134
294.44257
294.03382
293.66898
293.34293
293.05131
292.79042
292.55712
292.34874
292.16297
291.99786
291.85175
291.72324
291.61114
291.51447
325.23764
318.47607
313.94193
310.56934
307.9148
305.75217
303.94983
302.42367
301.11619
299.98593
299.0019
298.14015
297.38181
296.71172
296.11754
295.58911
295.118
294.69714
294.3206
293.98335
293.68112
293.41028
293.1677
292.95074
292.7571
292.58484
292.43228
292.29802
292.18086
292.0798
325.43748
318.84766
314.42419
311.12807
308.52731
306.40202
304.62462
303.11392
301.81461
300.687
299.70145
298.83512
298.07002
297.39165
296.78822
296.24997
295.76878
295.33783
294.95136
294.60449
294.29303
294.01343
293.76261
293.53796
293.3372
293.1584
292.9999
292.86028
292.73833
292.63306
325.62001
319.18718
314.86563
311.64093
309.09148
307.00295
305.25126
303.75772
302.46888
301.34655
300.36227
299.49417
298.72501
298.04094
297.43065
296.88478
296.39551
295.95627
295.56149
295.20642
294.887
294.59975
294.34165
294.11013
293.90295
293.71821
293.55424
293.40962
293.28317
293.17386
325.78795
319.4996
315.2724
312.11456
309.61394
307.56124
305.83549
304.36015
303.08339
301.96829
300.98744
300.1198
299.34881
298.66119
298.04608
297.49448
296.99888
296.55295
296.1513
295.78933
295.4631
295.1692
294.90471
294.66709
294.45415
294.26401
294.09501
293.94576
293.81505
293.70187
325.94338
319.78879
315.64938
312.55427
310.10009
308.08211
306.38214
304.92556
303.66198
302.55556
301.57979
300.71438
299.94337
299.25398
298.63575
298.08006
297.57965
297.12843
296.72119
296.35347
296.02146
295.72185
295.45177
295.20876
294.99067
294.79563
294.62203
294.46847
294.33375
294.21686
326.08798
320.05786
316.00045
312.96435
310.55433
308.56985
306.89529
305.45772
304.208
303.1113
302.14188
301.28008
300.51051
299.82081
299.20092
298.64251
298.13861
297.68331
297.2716
296.89917
296.56231
296.25782
295.9829
295.73515
295.51245
295.31298
295.13516
294.9776
294.83911
294.71867
326.22309
320.30932
316.32878
313.34833
310.98031
309.0281
307.3784
305.95984
304.72441
303.63815
302.67601
301.81892
301.05194
300.36314
299.74278
299.18283
298.67655
298.21824
297.80305
297.42682
297.08594
296.7773
296.49821
296.24629
296.0195
295.81605
295.63436
295.47308
295.33103
295.20719
326.34982
320.5452
316.63698
313.70913
311.38109
309.4599
307.83442
306.4347
305.21377
304.13844
303.18427
302.33271
301.56926
300.88233
300.2625
299.70199
299.19428
298.73387
298.31606
297.93682
297.59265
297.28055
296.99787
296.74232
296.5119
296.30484
296.11962
295.9549
295.80949
295.6824
326.46908
320.76721
316.92721
314.04917
311.75923
309.86784
308.26588
306.88472
305.67833
304.61422
303.66852
302.82313
302.06392
301.37965
300.76116
300.20091
299.69259
299.23086
298.81117
298.42961
298.08281
297.76782
297.4821
297.22339
296.98975
296.77946
296.59101
296.42308
296.27452
296.14431
326.58164
320.97677
317.20128
314.37051
312.11689
310.25412
308.67496
307.312
306.12008
305.06734
304.13044
303.29168
302.53729
301.8563
301.23982
300.68051
300.17226
299.70987
299.28894
298.90568
298.5568
298.23945
297.95115
297.68971
297.45323
297.24003
297.04862
296.87771
296.72617
296.59298
326.68814
321.17507
317.46074
314.67488
312.45595
310.62066
309.06355
307.71837
306.54074
305.49943
304.57154
303.73975
302.9906
302.31339
301.69945
301.14165
300.63403
300.17155
299.74993
299.36548
299.01501
298.69577
298.40531
298.14152
297.90253
297.68671
297.49259
297.31892
297.16456
297.02852
326.78914
321.36313
317.70688
314.96379
312.77799
310.96908
309.43329
308.10543
306.94188
305.91195
304.99318
304.16858
303.42499
302.75195
302.14099
301.58515
301.07863
300.61653
300.19468
299.8095
299.45788
299.13712
298.84488
298.57907
298.33788
298.1197
297.92311
297.74686
297.58984
297.45107
326.88511
321.54184
317.94083
315.23852
313.0844
311.30083
309.78562
308.4746
307.32486
306.30621
305.39658
304.57932
303.84152
303.17294
302.56529
302.01178
301.50676
301.04543
300.62375
300.23821
299.8858
299.56389
299.27018
299.00266
298.75953
298.53923
298.34037
298.16173
298.00219
297.8608
326.97645
321.71194
318.16358
315.50018
313.37639
311.61716
310.12181
308.82714
307.69089
306.68337
305.78286
304.97302
304.24115
303.57724
302.97317
302.42229
301.91907
301.45885
301.03766
300.6521
300.29922
299.97646
299.68157
299.41258
299.16775
298.94555
298.74461
298.56372
298.40181
298.25791
327.06353
321.8741
318.37596
315.74975
313.65501
311.91916
310.44297
309.16416
308.04108
307.04448
306.15302
305.35061
304.62478
303.96569
303.36539
302.81737
302.31622
301.85737
301.43695
301.05164
300.69856
300.3752
300.07937
299.80915
299.56284
299.33892
299.13607
298.95309
298.78892
298.64262
327.14666
322.02889
318.57873
315.98809
313.92119
312.20782
310.75011
309.48665
308.37639
307.39051
306.50798
305.71296
304.99321
304.33905
303.74267
303.19769
302.6988
302.24155
301.82213
301.43729
301.08424
300.7605
300.46395
300.19271
299.94509
299.71963
299.51502
299.33008
299.16377
299.01516
327.2261
322.17682
318.77255
316.21596
314.17576
312.484
311.04411
309.79551
308.69772
307.72231
306.84857
306.06089
305.34721
304.69803
304.10567
303.56386
303.0674
302.61191
302.19368
301.80952
301.45668
301.13276
300.83567
300.56357
300.31482
300.08797
299.88173
299.69496
299.52662
299.3758
327.3021
322.31835
318.95799
316.43404
314.41945
312.74847
311.32576
310.09155
309.00586
308.04067
307.17555
306.39511
305.68749
305.0433
304.45502
303.91648
303.42256
302.96898
302.55208
302.16875
301.81629
301.49236
301.19489
300.92208
300.67234
300.44423
300.23649
300.048
299.87773
299.72478
327.37488
322.45387
319.13559
316.64292
314.65293
313.00194
311.5958
310.37548
309.30154
308.34631
307.48962
306.71631
306.01468
305.37549
304.79132
304.2561
303.76481
303.31324
302.8978
302.51543
302.16349
301.83967
301.54196
301.26858
301.01797
300.78872
300.5796
300.38949
300.21739
300.0624
327.44463
322.58374
319.3058
316.84315
314.8768
313.24502
311.85486
310.64798
309.58542
308.63988
307.79143
307.02512
306.32939
305.69516
305.11511
304.58325
304.09466
303.64518
303.23129
302.84999
302.49867
302.17508
301.87724
301.6034
301.35203
301.12176
300.91135
300.71972
300.54587
300.38892
327.51153
322.70829
319.46905
317.03522
315.09157
313.47831
312.10353
310.90964
309.85811
308.92198
308.08157
307.32211
306.6322
306.00288
305.42692
304.89844
304.41257
303.96524
303.55297
303.17282
302.82222
302.49895
302.20108
301.92689
301.67486
301.44365
301.23205
301.03897
300.86346
300.70463
327.57572
322.82782
319.62572
317.21958
315.29776
313.7023
312.34237
311.16101
310.12017
309.19317
308.36058
307.60782
306.92362
306.29914
305.72724
305.20213
304.71901
304.27386
303.86327
303.48432
303.13452
302.81166
302.51384
302.23937
301.98677
301.75471
301.54199
301.34756
301.17046
301.00982
327.63736
322.94259
319.77616
317.39662
315.49579
313.91748
312.57187
311.40261
310.3721
309.45397
308.62899
307.88276
307.20416
306.58442
306.01654
305.49478
305.01441
304.57146
304.16258
303.78489
303.43593
303.11354
302.81584
302.54118
302.28808
302.05524
301.84148
301.64577
301.46715
301.30477
327.69658
323.05283
319.92069
317.56672
315.68609
314.12429
312.79247
311.63491
310.61439
309.70484
308.88727
308.1474
307.47426
306.85919
306.29526
305.77682
305.29918
304.85844
304.45129
304.0749
303.72683
303.40496
303.10744
302.83264
302.5791
302.34555
302.13083
301.9339
301.75383
301.58977
327.7535
323.15879
320.0596
317.73021
315.86902
314.32312
313.0046
311.85833
310.84748
309.94625
309.13585
308.40218
307.73437
307.12387
306.56382
306.04865
305.57372
305.13519
304.72978
304.3547
304.00755
303.68625
303.38896
303.11407
302.86016
302.62595
302.41032
302.21224
302.03078
301.86512
327.80822
323.26066
320.19316
317.88742
316.04493
314.51435
313.20866
312.07328
311.07177
310.1786
309.37516
308.64751
307.9849
307.37886
306.82262
306.31066
305.83841
305.40206
304.99839
304.62465
304.27845
303.95774
303.66071
303.38578
303.13154
302.89674
302.68026
302.48108
302.29829
302.13108
327.86084
323.35864
320.32161
318.03863
316.21415
314.69833
313.40499
312.28013
311.28765
310.40227
309.60559
308.88379
308.22622
307.62454
307.07202
306.56322
306.09361
305.65943
305.25749
304.88508
304.53984
304.21975
303.92302
303.64809
303.39356
303.15821
302.94092
302.7407
302.55665
302.38795
327.91148
323.45289
320.44519
318.18412
316.37697
314.87536
313.59395
312.47924
311.49548
310.61764
309.8275
309.11137
308.45872
307.86128
307.3124
306.80668
306.33966
305.90762
305.5074
305.13632
304.79205
304.47259
304.17619
303.90128
303.64651
303.41065
303.19261
302.9914
302.80612
302.63599
327.9602
323.54359
320.56411
318.32413
316.53368
315.04577
313.77585
312.67093
311.6956
310.82505
310.04124
309.33061
308.68274
308.08942
307.54408
307.04139
306.57691
306.14697
305.74845
305.37868
305.03539
304.71658
304.42051
304.14567
303.89068
303.65435
303.43559
303.23343
303.04699
302.87548
328.0071
323.63089
320.67858
318.4589
316.68453
315.20982
313.95099
312.85551
311.88831
311.02481
310.24713
309.54183
308.89859
308.30929
307.76741
307.26766
306.80567
306.37779
305.98093
305.61248
305.27015
304.952
304.65629
304.38152
304.12635
303.88958
303.67014
303.46708
303.27953
303.10668
328.05225
323.71493
320.78878
318.58865
316.82978
315.36778
314.11963
313.03327
312.07393
311.21724
310.44549
309.74535
309.10661
308.5212
307.98267
307.4858
307.02623
306.60037
306.20516
305.838
305.49664
305.17913
304.88379
304.60912
304.35378
304.11661
303.89654
303.69262
303.50398
303.32985
328.09572
323.79585
320.89489
318.71359
316.96964
315.5199
314.28205
313.20449
312.25273
311.40263
310.6366
309.94147
309.30707
308.72544
308.19019
307.6961
307.23891
306.81502
306.42142
306.05552
305.71512
305.39827
305.1033
304.82874
304.57326
304.33571
304.11503
303.91029
303.72062
303.54526
328.13758
323.87378
320.99707
318.83391
317.10434
315.66641
314.4385
313.36942
312.42498
311.58124
310.82075
310.13045
309.50028
308.92231
308.39023
307.89886
307.44398
307.02202
306.62999
306.26534
305.92587
305.60967
305.31508
305.04064
304.78504
304.54713
304.32588
304.12035
303.92969
303.75314
328.1779
323.94883
321.09548
318.9498
317.23408
315.80754
314.58921
313.52831
312.59094
311.75333
310.9982
310.31258
309.68649
309.11208
308.58307
308.09434
307.6417
307.22162
306.83113
306.4677
306.12915
305.8136
305.51939
305.24508
304.98937
304.75114
304.52933
304.32305
304.13144
303.95374
328.21674
324.02112
321.19028
319.06143
317.35906
315.94349
314.7344
313.68139
312.75084
311.91916
311.16921
310.48811
309.86597
309.295
308.76897
308.28281
307.83235
307.41409
307.0251
306.66286
306.32522
306.0103
305.71648
305.4423
305.18651
304.94796
304.72563
304.51862
304.3261
304.1473
328.25415
324.09076
321.2816
319.16896
317.47946
316.07447
314.87428
313.82889
312.90491
312.07896
311.334
310.65728
310.03896
309.47132
308.94818
308.4645
308.01616
307.59968
307.21215
306.85107
306.51432
306.20003
305.90658
305.63255
305.37668
305.13783
304.91501
304.70731
304.51391
304.33405
328.29019
324.15784
321.36957
319.27256
317.59546
316.20066
315.00905
313.97101
313.05338
312.23295
311.49282
310.82032
310.2057
309.64128
309.12093
308.63967
308.19338
307.77863
307.39252
307.03258
306.69669
306.38301
306.08994
305.81606
305.56011
305.32099
305.0977
304.88934
304.69508
304.51421
328.3249
324.22247
321.45432
319.37237
317.70721
316.32225
315.13892
314.10795
313.19645
312.38135
311.64588
310.97746
310.36641
309.80511
309.28747
308.80855
308.36425
307.95117
307.56644
307.20761
306.87256
306.55949
306.26678
305.99305
305.73705
305.49767
305.27392
305.06492
304.86985
304.68799
328.35835
324.28474
321.53598
319.46854
317.81489
316.4394
315.26405
314.23991
313.33431
312.52436
311.79339
311.12892
310.52131
309.96303
309.44801
308.97135
308.52898
308.11752
307.73413
307.37638
307.04216
306.72967
306.43733
306.16375
305.90769
305.66806
305.44389
305.23427
305.03842
304.85561
328.39057
324.34473
321.61465
319.5612
317.91865
316.55228
315.38462
314.36707
313.46717
312.66218
311.93556
311.27489
310.67062
310.11525
309.60276
309.12828
308.68778
308.27791
307.89582
307.5391
307.20569
306.89377
306.60179
306.32836
306.07226
305.8324
305.60781
305.39761
305.201
305.01727
328.42162
324.40252
321.69046
319.65047
318.01861
316.66105
315.50081
314.4896
313.5952
312.795
312.07257
311.41557
310.81452
310.26196
309.75193
309.27957
308.84088
308.43253
308.0517
307.696
307.36336
307.05201
306.76037
306.48709
306.23095
305.99087
305.76588
305.55512
305.35779
305.17318
328.45153
324.45821
321.76349
319.73649
318.11494
316.76586
315.61276
314.60768
313.71857
312.92299
312.20461
311.55116
310.95322
310.40338
309.89571
309.42539
308.98845
308.58158
308.20197
307.84725
307.51538
307.20457
306.91328
306.64014
306.38397
306.14368
305.91831
305.70701
305.50898
305.32352
328.48034
324.51186
321.83386
319.81937
318.20775
316.86684
315.72064
314.72146
313.83746
313.04634
312.33185
311.68182
311.08689
310.53967
310.03429
309.56595
309.13071
308.72526
308.34684
307.99307
307.66193
307.35165
307.06069
306.78771
306.5315
306.29101
306.06528
305.85346
305.65476
305.46848
328.5081
324.56355
321.90166
319.89922
318.29717
316.96415
315.82458
314.83109
313.95202
313.16519
312.45447
311.80775
311.21571
310.67103
310.16786
309.70143
309.26782
308.86375
308.48648
308.13363
307.8032
307.49344
307.20281
306.92997
306.67374
306.43306
306.20698
305.99465
305.79531
305.60824
328.53483
324.61335
321.96697
319.97615
318.38333
317.0579
315.92473
314.93673
314.06241
313.27973
312.57263
311.9291
311.33985
310.79762
310.29658
309.83199
309.39997
308.99724
308.62107
308.26912
307.93938
307.63011
307.3398
307.06711
306.81086
306.56999
306.34358
306.13077
305.9308
305.74298
328.56059
324.66133
322.0299
320.05028
318.46634
317.14822
316.02123
315.03851
314.16877
313.39008
312.68649
312.04603
311.45948
310.91961
310.42063
309.95783
309.52733
309.12589
308.75079
308.3997
308.07063
307.76185
307.47185
307.1993
306.94303
306.70199
306.47526
306.26199
306.06142
305.87286
328.5854
324.70754
322.09053
320.12168
318.54631
317.23525
316.1142
315.13658
314.27125
313.49642
312.7962
312.1587
311.57475
311.03716
310.54017
310.07908
309.65006
309.24987
308.87581
308.52556
308.19713
307.88882
307.59912
307.3267
307.07042
306.82922
306.60217
306.38846
306.18731
305.99805
328.60929
324.75206
322.14892
320.19047
318.62335
317.31908
316.20377
315.23105
314.36998
313.59886
312.9019
312.26726
311.68582
311.15043
310.65535
310.19593
309.76833
309.36934
308.99628
308.64684
308.31904
308.01118
307.72177
307.44949
307.19319
306.95183
306.72449
306.51035
306.30865
306.11871
328.6323
324.79493
322.20517
320.25674
318.69756
317.39984
316.29005
315.32207
314.4651
313.69756
313.00373
312.37185
311.79283
311.25955
310.76633
310.30851
309.88228
309.48446
309.11236
308.7637
308.43651
308.12909
307.83996
307.56782
307.3115
307.06999
306.84237
306.62782
306.42558
306.23499
328.65445
324.83623
322.25935
320.32056
318.76905
317.47763
316.37316
315.40974
314.55672
313.79263
313.10183
312.4726
311.89592
311.36469
310.87324
310.41697
309.99207
309.59537
309.22421
308.8763
308.5497
308.24271
307.95385
307.68183
307.4255
307.18385
306.95596
306.74101
306.53826
306.34703
328.67578
324.876
322.31153
320.38203
318.8379
317.55256
316.45321
315.49419
314.64498
313.88421
313.19633
312.56966
311.99522
311.46597
310.97624
310.52146
310.09784
309.70223
309.33196
308.98478
308.65875
308.35216
308.06357
307.79168
307.53534
307.29355
307.0654
306.85007
306.64682
306.45499
328.69631
324.9143
322.36179
320.44123
318.90421
317.62473
316.53032
315.57552
314.72998
313.97242
313.28734
312.66314
312.09088
311.56352
311.07545
310.62211
310.19972
309.80516
309.43576
309.08929
308.76379
308.45761
308.16928
307.8975
307.64116
307.39924
307.17083
306.95513
306.75141
306.559
328.71608
324.95117
322.41017
320.49824
318.96806
317.69422
316.60457
315.65385
314.81185
314.05737
313.375
312.75318
312.183
311.65748
311.17101
310.71905
310.29786
309.9043
309.53574
309.18995
308.86498
308.55918
308.27109
307.99944
307.74309
307.50104
307.27239
307.05634
306.85216
306.65918
328.7351
324.98667
322.45676
320.55313
319.02955
317.76114
316.67607
315.72928
314.89068
314.13918
313.45942
312.83988
312.27172
311.74796
311.26304
310.81241
310.39237
309.99978
309.63203
309.28689
308.96244
308.65701
308.36916
308.09762
307.84127
307.59909
307.37022
307.15383
306.9492
306.75568
328.7534
325.02084
322.50161
320.60598
319.08874
317.82556
316.74491
315.80191
314.96659
314.21795
313.5407
312.92337
312.35715
311.83509
311.35165
310.90232
310.48338
310.09173
309.72476
309.38025
309.05629
308.75122
308.4636
308.19217
307.93581
307.69353
307.46442
307.24771
307.04266
306.84862
328.77101
325.05372
322.54478
320.65685
319.14573
317.88759
316.81118
315.87182
315.03966
314.29378
313.61895
313.00376
312.4394
311.91898
311.43697
310.98888
310.57101
310.18026
309.81405
309.47015
309.14666
308.84193
308.55454
308.28322
308.02685
307.78446
307.55514
307.33811
307.13265
306.93811
328.78795
325.08537
322.58634
320.70582
319.20058
317.94729
316.87498
315.93913
315.11001
314.36679
313.69429
313.08114
312.51858
311.99974
311.51911
311.07222
310.65537
310.2655
309.90001
309.55669
309.23366
308.92927
308.64209
308.37088
308.11451
307.872
307.64248
307.42515
307.2193
307.02427
328.80424
325.11583
322.62632
320.75294
319.25338
318.00475
316.93638
316.00391
315.17772
314.43705
313.7668
313.15562
312.5948
312.07748
311.59818
311.15244
310.73658
310.34754
309.98275
309.64
309.31741
309.01335
308.72638
308.45526
308.19889
307.95628
307.72656
307.50894
307.30271
307.10722
328.81991
325.14513
322.6648
320.79828
319.30418
318.06005
316.99547
316.06625
315.24288
314.50468
313.83658
313.22731
312.66816
312.1523
311.67428
311.22964
310.81474
310.42651
310.06239
309.72019
309.39802
309.09427
308.8075
308.53648
308.28011
308.0374
307.80749
307.58959
307.38299
307.18705
328.83497
325.17331
322.70181
320.84191
319.35306
318.11326
317.05232
316.12624
315.30558
314.56975
313.90373
313.29629
312.73874
312.2243
311.7475
311.30394
310.88995
310.50251
310.13903
309.79736
309.4756
309.17214
308.88557
308.61464
308.35827
308.11547
307.88537
307.66721
307.46026
307.26389
328.84944
325.20041
322.73741
320.88387
319.40007
318.16444
317.10702
316.18394
315.3659
314.63235
313.96834
313.36265
312.80665
312.29356
311.81796
311.37542
310.96232
310.57562
310.21277
309.8716
309.55024
309.24707
308.96069
308.68985
308.43347
308.19058
307.96032
307.74189
307.5346
307.33782
328.86335
325.22647
322.77165
320.92423
319.4453
318.21367
317.15963
316.23945
315.42392
314.69257
314.03048
313.42649
312.87198
312.3602
311.88573
311.44418
311.03193
310.64596
310.28371
309.94303
309.62205
309.31915
309.03295
308.7622
308.50583
308.26285
308.03241
307.81374
307.60612
307.40894
328.87671
325.25152
322.80456
320.96304
319.48878
318.26101
317.21022
316.29283
315.47972
314.75048
314.09025
313.48788
312.93481
312.42428
311.95092
311.51032
311.09889
310.71361
310.35194
310.01173
309.69111
309.38849
309.10246
308.8318
308.57542
308.33236
308.10176
307.88284
307.67492
307.47735
328.88955
325.27559
322.83621
321.00035
319.53059
318.30652
317.25887
316.34416
315.53338
314.80617
314.14772
313.54692
312.99522
312.48591
312.0136
311.57392
311.16328
310.77866
310.41755
310.07779
309.75752
309.45516
309.1693
308.89872
308.64234
308.3992
308.16844
307.9493
307.74108
307.54314
328.90187
325.29873
322.86662
321.03621
319.57078
318.35028
317.30563
316.3935
315.58496
314.8597
314.20297
313.60368
313.0533
312.54515
312.07386
311.63506
311.22518
310.84121
310.48063
310.1413
309.82138
309.51926
309.23356
308.96306
308.70668
308.46346
308.23256
308.01319
307.80468
307.60639
328.9137
325.32095
322.89584
321.07067
319.6094
318.39233
317.35057
316.44092
315.63453
314.91115
314.25607
313.65823
313.10913
312.60209
312.13178
311.69383
311.28467
310.90132
310.54126
310.20235
309.88275
309.58087
309.29533
309.02491
308.76853
308.52524
308.29419
308.07461
307.86582
307.6672
328.92505
325.3423
322.92391
321.10377
319.64651
318.43272
317.39375
316.48649
315.68216
314.96059
314.30709
313.71064
313.16277
312.65681
312.18743
311.7503
311.34185
310.95909
310.59953
310.26102
309.94173
309.64008
309.35469
309.08434
308.82796
308.5846
308.35341
308.13364
307.92458
307.72563
328.93594
325.36279
322.95086
321.13557
319.68214
318.47153
317.43522
316.53026
315.72792
315.00808
314.3561
313.761
313.2143
312.70938
312.2409
311.80455
311.39677
311.01459
310.6555
310.31738
309.9984
309.69697
309.41172
309.14144
308.88506
308.64163
308.41031
308.19034
307.98103
307.78176
328.94639
325.38246
322.97674
321.1661
319.71636
318.50879
317.47505
316.57229
315.77186
315.05369
314.40318
313.80936
313.26379
312.75986
312.29225
311.85666
311.44953
311.06789
310.70926
310.37151
310.05282
309.7516
309.46649
309.19628
308.9399
308.69641
308.46496
308.2448
308.03525
307.83568
328.9564
325.40133
323.00158
321.1954
319.74921
318.54456
317.51329
316.61264
315.81404
315.09748
314.44837
313.85579
313.31131
312.80833
312.34156
311.90669
311.50018
311.11907
310.76088
310.42349
310.10507
309.80406
309.51909
309.24894
308.99256
308.74901
308.51744
308.2971
308.08731
307.88745
328.966
325.41943
323.02541
321.22351
319.78073
318.57889
317.54999
316.65136
315.85453
315.1395
314.49174
313.90035
313.35692
312.85486
312.38888
311.95471
311.54879
311.1682
310.81043
310.47338
310.15523
309.85442
309.56957
309.29948
309.04311
308.79949
308.56781
308.3473
308.13728
307.93714
328.97519
325.43679
323.04826
321.25048
319.81097
318.61182
317.58519
316.68852
315.89337
315.17982
314.53336
313.9431
313.40067
312.89949
312.43429
312.00078
311.59544
311.21533
310.85797
310.52125
310.20336
309.90273
309.61801
309.34798
309.09161
308.84794
308.61614
308.39546
308.18523
307.98482
328.98399
325.45343
323.07017
321.27634
319.83997
318.6434
317.61895
316.72415
315.93062
315.21849
314.57327
313.98411
313.44264
312.9423
312.47784
312.04497
311.64018
311.26054
310.90356
310.56716
310.24952
309.94907
309.66446
309.3945
309.13812
308.8944
308.6625
308.44166
308.23122
308.03056
328.99241
325.46937
323.09117
321.30112
319.86776
318.67367
317.65131
316.7583
315.96633
315.25556
314.61153
314.02342
313.48288
312.98335
312.51959
312.08733
311.68307
311.30388
310.94728
310.61118
310.29377
309.9935
309.70901
309.4391
309.18273
308.93895
308.70695
308.48596
308.27532
308.07441
329.00047
325.48463
323.11128
321.32487
319.89439
318.70267
317.68232
316.79103
316.00055
315.29108
314.6482
314.06109
313.52143
313.02268
312.5596
312.12793
311.72418
311.34541
310.98918
310.65337
310.33619
310.03608
309.7517
309.48185
309.22547
308.98165
308.74954
308.52841
308.31758
308.11644
329.00817
325.49923
323.13053
321.3476
319.91988
318.73045
317.71201
316.82237
316.03333
315.3251
314.68332
314.09717
313.55836
313.06035
312.59792
312.16682
311.76355
311.3852
311.02931
310.69378
310.37681
310.07687
309.79259
309.52279
309.26642
309.02255
308.79035
308.56908
308.35806
308.1567
329.01553
325.51321
323.14896
321.36936
319.94429
318.75703
317.74044
316.85238
316.0647
315.35767
314.71694
314.13172
313.59372
313.09642
312.63461
312.20405
311.80125
311.42329
311.06773
310.73246
310.41571
310.11592
309.83174
309.56199
309.30562
309.06171
308.82942
308.60801
308.39682
308.19524
329.02256
325.52656
323.16658
321.39017
319.96763
318.78247
317.76763
316.88108
316.09472
315.38884
314.74911
314.16477
313.62755
313.13093
312.66972
312.23968
311.83732
311.45974
311.10449
310.76948
310.45293
310.15329
309.86921
309.5995
309.34314
309.09918
308.8668
308.64527
308.43391
308.23212
329.02926
325.53933
323.18342
321.41006
319.98995
318.80678
317.79364
316.90853
316.12342
315.41863
314.77986
314.19637
313.65989
313.16393
312.70329
312.27375
311.87182
311.4946
311.13965
310.80489
310.48853
310.18903
309.90504
309.63538
309.37901
309.13501
308.90255
308.6809
308.46938
308.2674
329.03565
325.55151
323.1995
321.42906
320.01127
318.83001
317.81848
316.93476
316.15084
315.44711
314.80926
314.22657
313.69081
313.19547
312.73538
312.3063
311.90478
311.52791
311.17325
310.83872
310.52255
310.22318
309.93928
309.66966
309.4133
309.16926
308.93672
308.71495
308.50328
308.30111
329.04174
325.56313
323.21485
321.4472
320.03162
318.85219
317.8422
316.9598
316.17703
315.47429
314.83732
314.25541
313.72033
313.22559
312.76601
312.33739
311.93626
311.55972
311.20534
310.87103
310.55503
310.25579
309.97198
309.70241
309.44604
309.20196
308.96935
308.74747
308.53566
308.33331
329.04754
325.57421
323.22948
321.4645
320.05104
318.87335
317.86483
316.98369
316.20201
315.50023
314.8641
314.28293
313.74849
313.25432
312.79525
312.36706
311.9663
311.59008
311.23596
310.90187
310.58603
310.28692
310.00318
309.73365
309.47729
309.23318
309.0005
308.77851
308.56655
308.36403
329.05305
325.58476
323.24343
321.48098
320.06954
318.89351
317.8864
317.00646
316.22583
315.52497
314.88964
314.30917
313.77535
313.28172
312.82312
312.39535
311.99494
311.61902
311.26515
310.93127
310.61559
310.3166
310.03294
309.76345
309.50708
309.26294
309.03019
308.8081
308.59601
308.39333
329.05828
325.5948
323.2567
321.49668
320.08716
318.91272
317.90694
317.02815
316.24852
315.54852
314.91395
314.33416
313.80093
313.30782
312.84967
312.42229
312.02223
311.64659
311.29296
310.95927
310.64375
310.34487
310.06128
309.79183
309.53547
309.29129
309.05848
308.83629
308.62408
308.42124
329.06324
325.60434
323.26932
321.5116
320.10392
318.93099
317.92648
317.04879
316.2701
315.57093
314.93709
314.35793
313.82527
313.33265
312.87494
312.44793
312.04819
311.67283
311.31943
310.98593
310.67055
310.37177
310.08826
309.81884
309.56248
309.31827
309.0854
308.86312
308.65079
308.4478
329.06794
325.6134
323.28131
321.52578
320.11984
318.94835
317.94505
317.0684
316.29061
315.59223
314.95908
314.38053
313.8484
313.35626
312.89895
312.47231
312.07287
311.69777
311.34459
311.01126
310.69602
310.39735
310.1139
309.84451
309.58816
309.34392
309.11099
308.88862
308.67618
308.47305
329.07239
325.62198
323.29267
321.53924
320.13495
318.96482
317.96268
317.08701
316.31008
315.61245
314.97996
314.40199
313.87037
313.37867
312.92175
312.49544
312.0963
311.72145
311.36847
311.03531
310.72021
310.42163
310.13824
309.86889
309.61254
309.36827
309.13528
308.91284
308.70028
308.49702
329.07659
325.6301