/*--------------------------------*- C++ -*----------------------------------*\
| =========                 |                                                 |
| \\      /  F ield         | OpenFOAM: The Open Source CFD Toolbox           |
|  \\    /   O peration     | Version:  2506                                  |
|   \\  /    A nd           | Website:  www.openfoam.com                      |
|    \\/     M anipulation  |                                                 |
\*---------------------------------------------------------------------------*/
FoamFile
{
    version     2.0;
    format      ascii;
    arch        "LSB;label=32;scalar=64";
    class       volScalarField;
    location    "15000/water";
    object      alphat;
}
// * * * * * * * * * * * * * * * * * * * * * * * * * * * * * * * * * * * * * //

dimensions      [1 -1 -1 0 0 0 0];

internalField   nonuniform List<scalar> 
1000
(
0.038690245
0.038689577
0.038688046
0.038679676
0.038634252
0.038395956
0.037190881
0.031863289
0.019099264
0.016301307
0.036437656
0.036436968
0.036430539
0.036397696
0.036243742
0.035561448
0.032798674
0.024476363
0.014644258
0.017654592
0.034756095
0.034752687
0.034735392
0.034658264
0.034338315
0.033096044
0.028914328
0.020078532
0.014287396
0.017671293
0.033455039
0.033447371
0.03341324
0.033276591
0.032760734
0.030940116
0.025769939
0.018272076
0.015952073
0.017301531
0.032418332
0.032405139
0.032350678
0.032150527
0.031437441
0.029070416
0.023556221
0.018635978
0.018861645
0.016925718
0.031571667
0.031552637
0.031479595
0.031226162
0.030328124
0.027485308
0.022555204
0.020803812
0.022278937
0.016666261
0.030866455
0.030843487
0.03076149
0.030477927
0.029402053
0.026292215
0.023061939
0.024243983
0.025541397
0.016525219
0.03027085
0.030249443
0.030178141
0.029894439
0.028644215
0.025787346
0.025138455
0.028280532
0.028304991
0.016463216
0.029764732
0.029755533
0.029725646
0.029468568
0.028106971
0.026357038
0.028508331
0.032334527
0.030519213
0.016442692
0.029337062
0.029357525
0.02940975
0.029196677
0.027980936
0.028237286
0.032681278
0.036080721
0.032267613
0.016440711
0.028984751
0.029060638
0.029241339
0.02909958
0.028583493
0.031375095
0.037164842
0.039413773
0.033659252
0.016446409
0.028712548
0.028878709
0.029233178
0.029270431
0.030215366
0.035478692
0.041608887
0.042341728
0.03478783
0.016455615
0.028533644
0.0288331
0.029403436
0.029913038
0.033002822
0.040161511
0.045828187
0.044910614
0.035723412
0.016467075
0.028470741
0.028950983
0.029795693
0.03130382
0.036852136
0.04507546
0.049751547
0.047172269
0.03651535
0.016480525
0.028557137
0.029264075
0.030516082
0.03367578
0.041511915
0.049977007
0.05336568
0.049173953
0.037197759
0.01649591
0.0288373
0.029812374
0.031757473
0.037113968
0.046676216
0.054725997
0.056681734
0.05095547
0.037793704
0.016513133
0.029366674
0.030660643
0.0337645
0.041531056
0.052070996
0.059252878
0.059719609
0.052547832
0.038312947
0.016531935
0.030212366
0.031928204
0.036741798
0.04671455
0.057495276
0.063527297
0.06250076
0.05397158
0.038771762
0.016552025
0.031460523
0.033808198
0.04076917
0.052403241
0.062820449
0.067538832
0.065043876
0.055249969
0.039180799
0.016573204
0.033237374
0.036537773
0.045775484
0.058353696
0.067969846
0.071286982
0.067367531
0.056402436
0.039547844
0.016595309
0.035735341
0.040316744
0.051571114
0.064374801
0.072897502
0.074772587
0.069492199
0.057443787
0.039878869
0.016618162
0.039206376
0.045225279
0.05790954
0.070330379
0.077571395
0.078005595
0.07143476
0.058385913
0.0401782
0.016641573
0.043888629
0.051190478
0.064545469
0.076123496
0.081973347
0.080996919
0.073208812
0.059238089
0.040448934
0.016665345
0.049892704
0.058009608
0.071267706
0.081682695
0.086094411
0.083754935
0.074824876
0.060007211
0.040693178
0.016689274
0.057120662
0.065404539
0.077905778
0.086957457
0.089927759
0.086285054
0.076290286
0.060698
0.040912196
0.01671315
0.065268334
0.073076903
0.084332867
0.09191011
0.093464958
0.08858929
0.077609274
0.061313201
0.041106521
0.016736752
0.073906825
0.080754444
0.09045429
0.09650746
0.096695755
0.090666459
0.078783279
0.061853842
0.041276062
0.01675984
0.082592754
0.088207449
0.096193781
0.10072066
0.099609047
0.092513057
0.079811589
0.062319617
0.041420257
0.016782155
0.090953679
0.095254222
0.10149045
0.10452642
0.10219479
0.094124798
0.080692357
0.062709455
0.041538294
0.016803419
0.098725917
0.10176178
0.10629878
0.10790874
0.10444628
0.095498539
0.081423928
0.063022274
0.041629415
0.016823344
0.10575323
0.10764379
0.11058962
0.11086058
0.1063623
0.096634212
0.08200625
0.06325781
0.04169325
0.016841656
0.11196572
0.11285577
0.11435057
0.11338468
0.10794842
0.097536285
0.082442059
0.063417355
0.041730122
0.016858118
0.11735446
0.11738812
0.11758523
0.11549352
0.10921742
0.09821446
0.08273757
0.063504222
0.041741234
0.016872553
0.12194964
0.12125805
0.12031124
0.11720819
0.11018868
0.09868352
0.082902551
0.06352384
0.041728697
0.016884858
0.12580445
0.12450172
0.12255739
0.11855672
0.11088691
0.09896249
0.08294985
0.063483502
0.041695402
0.016895011
0.12898404
0.12716734
0.1243605
0.11957203
0.1113405
0.099073404
0.082894566
0.063391872
0.041644799
0.016903069
0.1315583
0.12930973
0.12576237
0.12028992
0.11157985
0.099039969
0.08275308
0.063258385
0.041580626
0.016909148
0.13359747
0.13098627
0.12680722
0.12074736
0.11163595
0.098886351
0.082542142
0.063092669
0.041506655
0.016913417
0.13516938
0.13225406
0.12753964
0.12098103
0.11153922
0.098636178
0.08227809
0.062904049
0.041426477
0.016916078
0.13633792
0.13316814
0.12800314
0.12102637
0.11131862
0.098311783
0.081976252
0.062701161
0.041343345
0.016917349
0.13716222
0.13378024
0.12823906
0.12091673
0.11100107
0.09793366
0.081650509
0.062491677
0.041260068
0.016917457
0.13769625
0.13413817
0.12828587
0.12068288
0.11061099
0.0975201
0.081313011
0.062282143
0.041178951
0.01691662
0.1379887
0.13428538
0.12817875
0.12035266
0.11017008
0.097086988
0.080974034
0.062077902
0.041101786
0.016915045
0.13808296
0.13426086
0.12794932
0.11995084
0.10969718
0.096647738
0.080641953
0.061883105
0.041029863
0.016912916
0.13801735
0.13409917
0.12762559
0.11949899
0.10920831
0.096213318
0.080323229
0.061700521
0.040962952
0.016910381
0.13782537
0.13383055
0.12723202
0.11901568
0.10871674
0.095792348
0.080022427
0.061531189
0.040902166
0.016907568
0.137536
0.13348125
0.1267897
0.11851652
0.10823319
0.095391201
0.079742025
0.061377146
0.040847957
0.016904599
0.1371742
0.1330738
0.12631659
0.11801445
0.10776592
0.095013951
0.079485088
0.061239157
0.040800474
0.016901577
0.13676122
0.13262738
0.12582775
0.11751982
0.10732082
0.094664848
0.079253044
0.061117431
0.040759633
0.016898585
0.136315
0.13215802
0.12533538
0.11704052
0.10690357
0.094346304
0.079046442
0.061011741
0.040725171
0.016895687
0.13585038
0.13167886
0.12484956
0.11658395
0.10651791
0.094059575
0.078865147
0.060921509
0.0406967
0.016892933
0.13537971
0.13120109
0.1243791
0.11615543
0.10616621
0.093804986
0.07870847
0.060845887
0.040673747
0.016890356
0.13491345
0.13073411
0.12393081
0.11575873
0.10584967
0.093582094
0.078575284
0.060783836
0.04065579
0.01688798
0.13446011
0.13028536
0.12350981
0.11539626
0.10556851
0.093389838
0.078464132
0.06073419
0.040642285
0.01688582
0.13402645
0.12986059
0.12311973
0.1150693
0.10532217
0.093226673
0.078373329
0.060695715
0.040632687
0.016883881
0.13361759
0.129464
0.12276289
0.11477811
0.10510943
0.093090699
0.078301046
0.060667152
0.040626463
0.016882163
0.13323724
0.12909848
0.12244052
0.11452219
0.10492859
0.092979779
0.078245386
0.06064726
0.04062311
0.01688066
0.13288786
0.12876576
0.12215294
0.11430041
0.10477757
0.092891639
0.078204453
0.060634846
0.040622158
0.016879363
0.13257089
0.12846663
0.12189971
0.11411113
0.1046541
0.092823958
0.078176399
0.06062879
0.040623182
0.016878261
0.13228687
0.1282011
0.12167983
0.11395241
0.10455576
0.092774438
0.078159469
0.060628058
0.040625799
0.016877339
0.13203567
0.12796857
0.12149184
0.11382206
0.10448009
0.092740849
0.078152015
0.06063171
0.040629671
0.016876585
0.13181656
0.12776793
0.12133394
0.11371772
0.10442462
0.092721054
0.078152508
0.060638895
0.0406345
0.016875984
0.13162837
0.12759765
0.12120407
0.11363696
0.10438692
0.092713017
0.078159532
0.060648842
0.040640019
0.016875522
0.13146949
0.12745588
0.12109994
0.11357725
0.10436462
0.092714815
0.07817178
0.060660855
0.040645994
0.016875184
0.13133803
0.1273405
0.12101914
0.1135361
0.10435542
0.092724644
0.078188056
0.060674312
0.040652217
0.016874954
0.13123182
0.12724919
0.12095917
0.113511
0.10435715
0.092740837
0.078207284
0.060688664
0.040658508
0.016874817
0.13114854
0.12717952
0.12091752
0.11349958
0.10436778
0.092761892
0.078228515
0.060703442
0.040664722
0.016874759
0.13108579
0.12712904
0.12089174
0.1134996
0.10438547
0.092786485
0.078250944
0.06071826
0.040670743
0.016874766
0.13104117
0.12709535
0.12087953
0.113509
0.10440859
0.092813479
0.078273899
0.060732812
0.040676487
0.016874827
0.13101238
0.12707616
0.12087871
0.11352592
0.10443571
0.092841914
0.078296837
0.060746864
0.040681893
0.01687493
0.13099722
0.12706931
0.12088732
0.11354873
0.10446561
0.092870984
0.078319319
0.060760235
0.04068692
0.016875067
0.13099363
0.12707279
0.12090354
0.11357594
0.10449721
0.092900009
0.078340983
0.060772776
0.040691492
0.016875229
0.13099966
0.12708474
0.12092571
0.11360623
0.10452958
0.09292841
0.078361526
0.060784333
0.040695586
0.016875407
0.13101352
0.12710342
0.12095235
0.11363844
0.10456191
0.092955694
0.078380676
0.060794831
0.040699221
0.016875595
0.13103353
0.12712726
0.12098208
0.11367153
0.1045935
0.092981444
0.078398257
0.060804255
0.040702407
0.016875788
0.13105817
0.12715482
0.12101372
0.11370463
0.10462377
0.093005356
0.078414197
0.060812598
0.040705163
0.01687598
0.13108608
0.12718484
0.12104622
0.11373699
0.10465229
0.093027276
0.078428453
0.060819881
0.040707511
0.016876168
0.13111605
0.12721621
0.12107871
0.11376804
0.1046788
0.093047109
0.078441036
0.060826149
0.04070948
0.016876348
0.13114706
0.127248
0.12111049
0.11379739
0.10470312
0.093064828
0.078451995
0.060831462
0.040711101
0.016876518
0.13117827
0.12727948
0.12114107
0.11382475
0.10472515
0.093080463
0.078461409
0.060835893
0.040712407
0.016876677
0.13120901
0.12731007
0.12117004
0.11384995
0.10474488
0.093094081
0.078469374
0.060839515
0.040713432
0.016876824
0.13123876
0.12733934
0.12119713
0.11387286
0.10476232
0.093105773
0.078475993
0.060842403
0.040714206
0.016876958
0.1312671
0.12736693
0.12122212
0.11389343
0.10477753
0.093115647
0.078481372
0.060844632
0.040714758
0.016877079
0.13129373
0.1273926
0.12124489
0.11391167
0.10479059
0.093123825
0.078485622
0.06084627
0.040715116
0.016877187
0.13131841
0.12741616
0.12126535
0.11392761
0.10480162
0.093130437
0.078488854
0.060847388
0.040715306
0.016877282
0.131341
0.12743751
0.12128352
0.11394133
0.10481075
0.093135627
0.078491183
0.060848056
0.040715353
0.016877363
0.1313614
0.12745661
0.12129942
0.11395296
0.10481814
0.093139547
0.078492726
0.060848342
0.040715283
0.016877432
0.13137962
0.1274735
0.12131316
0.11396263
0.10482395
0.093142352
0.078493598
0.060848312
0.04071512
0.01687749
0.13139567
0.12748822
0.12132484
0.11397052
0.10482837
0.093144192
0.078493906
0.060848028
0.040714886
0.016877537
0.13140965
0.1275009
0.12133461
0.1139768
0.10483156
0.09314521
0.078493752
0.060847543
0.040714599
0.016877575
0.13142165
0.12751164
0.12134263
0.11398162
0.10483368
0.093145537
0.078493223
0.060846904
0.040714275
0.016877605
0.1314318
0.12752059
0.12134906
0.11398517
0.10483489
0.093145291
0.078492398
0.060846152
0.040713926
0.016877627
0.13144023
0.12752789
0.12135404
0.11398759
0.10483531
0.09314458
0.078491346
0.060845322
0.040713564
0.016877642
0.13144707
0.12753369
0.12135775
0.11398905
0.10483509
0.093143501
0.078490128
0.060844444
0.040713199
0.016877652
0.13145248
0.12753814
0.12136033
0.11398968
0.10483435
0.093142144
0.0784888
0.060843545
0.040712838
0.016877656
0.1314566
0.1275414
0.12136194
0.11398963
0.1048332
0.093140589
0.078487412
0.060842649
0.040712488
0.016877657
0.13145959
0.12754363
0.12136273
0.11398903
0.10483174
0.09313891
0.078486006
0.060841776
0.040712157
0.016877654
0.13146161
0.12754497
0.12136284
0.11398799
0.10483006
0.093137166
0.078484616
0.06084094
0.040711847
0.016877648
0.13146278
0.12754556
0.12136239
0.11398662
0.10482825
0.093135409
0.078483271
0.060840154
0.040711562
0.016877641
0.13146326
0.12754553
0.1213615
0.11398501
0.10482636
0.093133676
0.078481988
0.060839421
0.040711301
0.016877632
)
;

boundaryField
{
    water_inlet
    {
        type            calculated;
        value           uniform 0.041850807;
    }
    water_outlet
    {
        type            calculated;
        value           nonuniform List<scalar> 10(0.13146326 0.12754553 0.1213615 0.11398501 0.10482636 0.093133676 0.078481988 0.060839421 0.040711301 0.016877632);
    }
    water_wedge1
    {
        type            wedge;
    }
    water_wedge2
    {
        type            wedge;
    }
    water_to_rock
    {
        type            compressible::alphatWallFunction;
        value           nonuniform List<scalar> 
100
(
0.0020384971
0.0022594581
0.0022621707
0.0022020356
0.0021407412
0.0020983184
0.0020752203
0.0020650582
0.0020616934
0.0020613685
0.0020623026
0.002063812
0.002065691
0.0020678959
0.0020704177
0.0020732403
0.0020763213
0.0020796126
0.002083082
0.0020867023
0.0020904447
0.0020942778
0.002098169
0.0021020851
0.0021059918
0.0021098529
0.0021136296
0.0021172792
0.002120756
0.0021240132
0.0021270062
0.0021296964
0.0021320554
0.0021340663
0.0021357258
0.0021370424
0.0021380355
0.0021387325
0.0021391666
0.0021393739
0.0021393914
0.002139255
0.0021389981
0.0021386507
0.0021382369
0.0021377773
0.002137292
0.002136798
0.0021363089
0.0021358353
0.0021353853
0.0021349645
0.0021345766
0.0021342238
0.0021339071
0.0021336263
0.0021333806
0.0021331685
0.0021329882
0.0021328376
0.0021327145
0.0021326166
0.0021325413
0.0021324861
0.0021324485
0.002132426
0.0021324163
0.0021324173
0.002132427
0.0021324439
0.0021324664
0.0021324929
0.0021325222
0.0021325529
0.0021325843
0.0021326155
0.0021326461
0.0021326754
0.0021327033
0.0021327294
0.0021327535
0.0021327755
0.0021327953
0.002132813
0.0021328285
0.0021328418
0.0021328532
0.0021328627
0.0021328705
0.0021328768
0.0021328817
0.0021328853
0.0021328878
0.0021328894
0.0021328901
0.0021328902
0.0021328897
0.0021328888
0.0021328876
0.0021328861
)
;
    }
}


// ************************************************************************* //
