/*--------------------------------*- C++ -*----------------------------------*\
| =========                 |                                                 |
| \\      /  F ield         | OpenFOAM: The Open Source CFD Toolbox           |
|  \\    /   O peration     | Version:  2506                                  |
|   \\  /    A nd           | Website:  www.openfoam.com                      |
|    \\/     M anipulation  |                                                 |
\*---------------------------------------------------------------------------*/
FoamFile
{
    version     2.0;
    format      ascii;
    arch        "LSB;label=32;scalar=64";
    class       volScalarField;
    location    "15000/water";
    object      epsilon;
}
// * * * * * * * * * * * * * * * * * * * * * * * * * * * * * * * * * * * * * //

dimensions      [0 2 -3 0 0 0 0];

internalField   nonuniform List<scalar> 
1000
(
7.2399316e-05
7.2397808e-05
7.2397502e-05
7.2398682e-05
7.2424146e-05
7.2686938e-05
7.4736184e-05
8.8973295e-05
0.00019794853
0.0013048048
4.7739543e-05
4.7745807e-05
4.7746167e-05
4.7748745e-05
4.7810065e-05
4.8371228e-05
5.2145895e-05
7.5319313e-05
0.00023607335
0.0016574915
3.3261229e-05
3.326441e-05
3.3263962e-05
3.3272039e-05
3.3396639e-05
3.4348943e-05
3.9973155e-05
7.1502154e-05
0.0002655
0.0016622
2.4212884e-05
2.4213778e-05
2.421353e-05
2.4236018e-05
2.4468828e-05
2.5979969e-05
3.4086732e-05
7.6375472e-05
0.00030233669
0.0015600258
1.8263229e-05
1.8263302e-05
1.8265922e-05
1.8318446e-05
1.8730723e-05
2.1090728e-05
3.2935663e-05
9.0423572e-05
0.00035053664
0.0014605599
1.4183053e-05
1.4183388e-05
1.4193787e-05
1.4301413e-05
1.5003315e-05
1.8678148e-05
3.6167977e-05
0.00011337717
0.00040230472
0.0013944164
1.1285033e-05
1.1287109e-05
1.1313191e-05
1.1514086e-05
1.2672043e-05
1.8360604e-05
4.3854006e-05
0.00014255042
0.00044702276
0.0013593135
9.1651308e-06
9.1712237e-06
9.2251468e-06
9.576515e-06
1.1437657e-05
2.0107147e-05
5.5828096e-05
0.00017322861
0.00047957539
0.0013440708
7.5754962e-06
7.5890767e-06
7.6892449e-06
8.2761017e-06
1.1198203e-05
2.4041186e-05
7.1186987e-05
0.00020099059
0.00050080756
0.0013390507
6.3585386e-06
6.3848727e-06
6.5589456e-06
7.5064215e-06
1.1984518e-05
3.0236094e-05
8.8277438e-05
0.00022355935
0.00051393056
0.0013385666
5.4111025e-06
5.4581716e-06
5.747494e-06
7.2369292e-06
1.3906664e-05
3.8515412e-05
0.00010524316
0.00024078309
0.00052197901
0.0013399585
4.6642398e-06
4.7441302e-06
5.2100527e-06
7.4969419e-06
1.7086974e-05
4.8355495e-05
0.00012068234
0.00025359537
0.00052708044
0.00134221
4.0714679e-06
4.2024403e-06
4.9349805e-06
8.3622544e-06
2.1575411e-05
5.8975421e-05
0.00013393056
0.0002631341
0.00053055263
0.0013450164
3.6019037e-06
3.8114134e-06
4.9402441e-06
9.9351034e-06
2.7272171e-05
6.9567042e-05
0.00014492632
0.00027035442
0.00053316288
0.0013483151
3.2363934e-06
3.5653613e-06
5.2715546e-06
1.2311449e-05
3.3901678e-05
7.9510724e-05
0.00015392457
0.00027595647
0.00053534108
0.0013520947
2.9656645e-06
3.4742259e-06
5.9984176e-06
1.5537512e-05
4.1062749e-05
8.8461045e-05
0.00016127371
0.00028042556
0.00053731692
0.0013563343
2.7900136e-06
3.5645572e-06
7.2040828e-06
1.9569989e-05
4.8330081e-05
9.6307065e-05
0.00016730384
0.00028408924
0.00053917776
0.0013609725
2.7202658e-06
3.8804208e-06
8.9664042e-06
2.4261441e-05
5.5350015e-05
0.0001030838
0.00017229233
0.00028715789
0.00054093694
0.0013659398
2.7797383e-06
4.4819661e-06
1.1330808e-05
2.9383046e-05
6.1887462e-05
0.00010889372
0.00017645197
0.00028975384
0.00054267248
0.0013711899
3.0065649e-06
5.4386957e-06
1.4283605e-05
3.4675032e-05
6.7820835e-05
0.00011385659
0.00017993851
0.00029198033
0.00054443435
0.0013766837
3.4547869e-06
6.8148522e-06
1.7738623e-05
3.9899726e-05
7.3111849e-05
0.00011808671
0.0001828539
0.00029394156
0.00054623653
0.0013823792
4.1911457e-06
8.6476013e-06
2.1546243e-05
4.4874733e-05
7.776918e-05
0.00012165882
0.00018531792
0.0002956975
0.00054807397
0.0013882301
5.2835808e-06
1.092486e-05
2.5521745e-05
4.9478052e-05
8.1803688e-05
0.00012466943
0.00018741285
0.00029728405
0.00054993277
0.0013941876
6.7799047e-06
1.3574408e-05
2.9480257e-05
5.3622561e-05
8.525312e-05
0.0001271993
0.00018919519
0.00029872103
0.00055179399
0.0014002016
8.6832001e-06
1.6474035e-05
3.3249979e-05
5.7259508e-05
8.8167023e-05
0.00012930767
0.00019070223
0.00030001671
0.00055363508
0.0014062194
1.0937764e-05
1.9464183e-05
3.6694093e-05
6.0377144e-05
9.0586563e-05
0.00013103646
0.00019195666
0.00030117051
0.00055543021
0.0014121852
1.34232e-05
2.2384281e-05
3.9726938e-05
6.2977833e-05
9.2544728e-05
0.00013241415
0.00019297013
0.0003021751
0.00055715051
0.001418038
1.5988046e-05
2.5103468e-05
4.2303141e-05
6.5074394e-05
9.4068654e-05
0.00013345984
0.00019374677
0.00030301856
0.00055876484
0.0014237102
1.8484482e-05
2.7531371e-05
4.4410706e-05
6.6689266e-05
9.5183184e-05
0.00013418765
0.0001942868
0.00030368702
0.00056024142
0.0014291288
2.0793621e-05
2.9617734e-05
4.6063557e-05
6.785432e-05
9.5914504e-05
0.00013461101
0.00019459041
0.00030416792
0.00056155058
0.0014342183
2.2836436e-05
3.1345695e-05
4.7294039e-05
6.8609967e-05
9.629285e-05
0.00013474634
0.00019466133
0.0003044532
0.00056266791
0.0014389062
2.4572701e-05
3.2723003e-05
4.8145964e-05
6.900321e-05
9.635369e-05
0.0001346154
0.00019450942
0.00030454198
0.00056357728
0.0014431293
2.5993422e-05
3.3773688e-05
4.8668774e-05
6.9084953e-05
9.6137358e-05
0.00013424616
0.00019415198
0.00030444196
0.00056427258
0.0014468396
2.7111419e-05
3.4531228e-05
4.891314e-05
6.8907174e-05
9.5687575e-05
0.00013367211
0.0001936135
0.00030416941
0.00056475822
0.0014500082
2.7952823e-05
3.5033464e-05
4.8927962e-05
6.8520451e-05
9.5049403e-05
0.00013293067
0.00019292429
0.00030374788
0.00056504801
0.0014526267
2.8550513e-05
3.5319055e-05
4.8758546e-05
6.7972087e-05
9.4267161e-05
0.00013206107
0.0001921183
0.000303206
0.00056516323
0.0014547066
2.8939567e-05
3.54252e-05
4.8445648e-05
6.7304905e-05
9.3382646e-05
0.00013110214
0.00019123078
0.000302575
0.00056513008
0.0014562766
2.9154381e-05
3.5386284e-05
4.8025107e-05
6.6556603e-05
9.2433822e-05
0.00013009046
0.00019029602
0.00030188627
0.00056497711
0.0014573791
2.9227004e-05
3.523319e-05
4.752785e-05
6.5759562e-05
9.1453991e-05
0.000129059
0.00018934556
0.00030116931
0.00056473293
0.0014580659
2.918629e-05
3.499304e-05
4.6980126e-05
6.4940949e-05
9.0471406e-05
0.00012803615
0.00018840687
0.0003004502
0.00056442439
0.0014583939
2.9057591e-05
3.4689215e-05
4.6403846e-05
6.4123025e-05
8.9509232e-05
0.00012704533
0.00018750269
0.00029975067
0.00056407527
0.0014584216
2.8862755e-05
3.4341548e-05
4.5817e-05
6.3323565e-05
8.8585764e-05
0.00012610493
0.00018665073
0.00029908774
0.00056370557
0.0014582057
2.8620312e-05
3.3966603e-05
4.5234077e-05
6.2556348e-05
8.7714817e-05
0.00012522856
0.0001858638
0.00029847372
0.00056333132
0.0014577993
2.8345756e-05
3.3578002e-05
4.4666503e-05
6.1831652e-05
8.6906226e-05
0.00012442548
0.00018515027
0.00029791661
0.00056296452
0.0014572497
2.8051867e-05
3.3186766e-05
4.4123046e-05
6.1156751e-05
8.6166368e-05
0.00012370117
0.00018451453
0.00029742044
0.00056260937
0.0014565952
2.7749037e-05
3.2801646e-05
4.3610197e-05
6.0536389e-05
8.5498748e-05
0.00012305801
0.00018395793
0.0002969852
0.00056226381
0.0014558683
2.744559e-05
3.2429444e-05
4.3132535e-05
5.9973232e-05
8.4904552e-05
0.00012249588
0.0001834787
0.00029660473
0.00056194058
0.0014551009
2.7148077e-05
3.2075302e-05
4.2693046e-05
5.9468263e-05
8.4383096e-05
0.00012201235
0.0001830701
0.00029628038
0.00056164645
0.0014543199
2.6861548e-05
3.1742964e-05
4.2293413e-05
5.9021127e-05
8.3932071e-05
0.00012160121
0.00018272936
0.00029601094
0.00056138439
0.0014535471
2.6589795e-05
3.1435039e-05
4.1934325e-05
5.8630243e-05
8.354638e-05
0.00012125844
0.00018245245
0.00029579326
0.00056115509
0.0014527992
2.6335587e-05
3.1153213e-05
4.1615269e-05
5.8292225e-05
8.3222158e-05
0.00012097922
0.0001822342
0.00029562304
0.0005609578
0.0014520888
2.6100727e-05
3.0898047e-05
4.1334748e-05
5.8004097e-05
8.2954978e-05
0.0001207581
0.00018206884
0.00029549539
0.00056079082
0.0014514247
2.5886113e-05
3.0669433e-05
4.1091083e-05
5.776252e-05
8.2740037e-05
0.00012058929
0.00018195032
0.00029540519
0.00056065194
0.0014508129
2.5692101e-05
3.0466848e-05
4.0882281e-05
5.7563885e-05
8.2572324e-05
0.00012046686
0.00018187258
0.00029534733
0.00056053865
0.0014502567
2.5518617e-05
3.0289427e-05
4.0706092e-05
5.7404421e-05
8.2446762e-05
0.00012038497
0.00018182977
0.00029531694
0.00056044833
0.0014497573
2.5365241e-05
3.0136022e-05
4.0560089e-05
5.7280279e-05
8.2358331e-05
0.00012033795
0.00018181633
0.00029530943
0.0005603784
0.0014493147
2.5231277e-05
3.0005272e-05
4.0441723e-05
5.7187619e-05
8.2302157e-05
0.00012032045
0.00018182711
0.00029532064
0.00056032639
0.0014489273
2.5115811e-05
2.989565e-05
4.0348389e-05
5.7122679e-05
8.2273596e-05
0.00012032746
0.00018185742
0.0002953468
0.00056028996
0.0014485929
2.5017763e-05
2.980552e-05
4.0277478e-05
5.7081824e-05
8.2268282e-05
0.0001203544
0.00018190305
0.00029538459
0.00056026699
0.0014483087
2.4935931e-05
2.973318e-05
4.0226416e-05
5.7061597e-05
8.2282165e-05
0.00012039713
0.00018196025
0.00029543108
0.00056025552
0.0014480715
2.4869032e-05
2.9676897e-05
4.0192706e-05
5.7058745e-05
8.2311534e-05
0.00012045191
0.00018202574
0.00029548375
0.00056025372
0.0014478778
2.481573e-05
2.9634943e-05
4.0173954e-05
5.7070246e-05
8.2353028e-05
0.00012051544
0.00018209665
0.00029554037
0.0005602599
0.0014477236
2.4774673e-05
2.9605618e-05
4.0167893e-05
5.7093322e-05
8.2403632e-05
0.00012058486
0.00018217055
0.00029559907
0.0005602725
0.0014476052
2.474451e-05
2.9587275e-05
4.0172399e-05
5.7125449e-05
8.2460683e-05
0.00012065766
0.00018224536
0.00029565823
0.00056029007
0.0014475183
2.472392e-05
2.9578344e-05
4.0185514e-05
5.7164365e-05
8.2521858e-05
0.00012073173
0.00018231936
0.00029571654
0.00056031129
0.0014474591
2.4711623e-05
2.9577341e-05
4.0205448e-05
5.7208071e-05
8.2585168e-05
0.00012080533
0.00018239118
0.00029577295
0.00056033505
0.0014474236
2.4706406e-05
2.9582887e-05
4.0230591e-05
5.7254826e-05
8.2648938e-05
0.00012087704
0.00018245974
0.00029582666
0.00056036043
0.0014474081
2.4707125e-05
2.9593715e-05
4.0259512e-05
5.7303139e-05
8.2711789e-05
0.00012094573
0.00018252425
0.00029587709
0.00056038668
0.0014474096
2.4712723e-05
2.9608676e-05
4.0290957e-05
5.7351751e-05
8.2772609e-05
0.00012101056
0.00018258414
0.00029592384
0.00056041317
0.0014474249
2.4722229e-05
2.962674e-05
4.0323843e-05
5.7399623e-05
8.2830525e-05
0.00012107091
0.00018263904
0.00029596667
0.0005604394
0.0014474515
2.4734766e-05
2.9646994e-05
4.0357247e-05
5.7445911e-05
8.2884877e-05
0.00012112636
0.00018268874
0.00029600542
0.00056046492
0.0014474869
2.4749546e-05
2.9668642e-05
4.0390396e-05
5.7489949e-05
8.2935185e-05
0.00012117664
0.00018273315
0.00029604
0.00056048911
0.0014475288
2.4765876e-05
2.9690996e-05
4.0422655e-05
5.7531233e-05
8.2981136e-05
0.00012122164
0.00018277228
0.00029607038
0.00056051122
0.0014475749
2.4783149e-05
2.9713474e-05
4.045352e-05
5.7569402e-05
8.3022561e-05
0.00012126137
0.00018280625
0.00029609642
0.00056053113
0.0014476232
2.4800845e-05
2.9735594e-05
4.0482603e-05
5.7604225e-05
8.3059416e-05
0.00012129596
0.00018283515
0.00029611825
0.00056054912
0.0014476726
2.4818528e-05
2.9756964e-05
4.0509623e-05
5.7635586e-05
8.3091762e-05
0.00012132554
0.00018285918
0.00029613634
0.00056056531
0.0014477218
2.4835839e-05
2.9777281e-05
4.0534397e-05
5.7663466e-05
8.31197e-05
0.0001213503
0.00018287879
0.00029615108
0.00056057979
0.0014477698
2.485249e-05
2.9796321e-05
4.0556828e-05
5.7687885e-05
8.3143371e-05
0.00012137063
0.00018289443
0.00029616284
0.00056059263
0.001447816
2.4868267e-05
2.9813929e-05
4.0576849e-05
5.7708917e-05
8.3163063e-05
0.00012138693
0.00018290653
0.00029617194
0.00056060391
0.0014478599
2.4882998e-05
2.9829982e-05
4.0594458e-05
5.7726731e-05
8.3179091e-05
0.00012139961
0.00018291549
0.00029617871
0.0005606137
0.001447901
2.4896556e-05
2.9844417e-05
4.0609716e-05
5.7741535e-05
8.319179e-05
0.00012140907
0.00018292172
0.00029618343
0.00056062208
0.001447939
2.4908866e-05
2.9857217e-05
4.0622723e-05
5.7753564e-05
8.3201499e-05
0.0001214157
0.00018292557
0.00029618637
0.00056062912
0.0014479738
2.4919891e-05
2.9868406e-05
4.0633613e-05
5.7763068e-05
8.3208559e-05
0.00012141987
0.0001829274
0.00029618779
0.00056063489
0.0014480051
2.492963e-05
2.987804e-05
4.064254e-05
5.7770307e-05
8.3213304e-05
0.00012142195
0.00018292753
0.00029618793
0.00056063951
0.0014480329
2.4938111e-05
2.9886197e-05
4.0649671e-05
5.7775541e-05
8.3216056e-05
0.00012142227
0.00018292628
0.00029618702
0.00056064308
0.0014480573
2.4945383e-05
2.9892974e-05
4.0655185e-05
5.7779025e-05
8.3217122e-05
0.00012142115
0.00018292391
0.00029618527
0.00056064572
0.0014480784
2.4951514e-05
2.9898479e-05
4.065926e-05
5.7781005e-05
8.3216786e-05
0.00012141887
0.00018292069
0.00029618288
0.00056064756
0.0014480963
2.4956581e-05
2.9902829e-05
4.0662073e-05
5.7781716e-05
8.3215314e-05
0.00012141569
0.00018291684
0.00029618001
0.00056064871
0.0014481114
2.4960673e-05
2.9906142e-05
4.0663795e-05
5.7781373e-05
8.3212942e-05
0.00012141185
0.00018291256
0.00029617682
0.00056064928
0.0014481237
2.4963882e-05
2.9908539e-05
4.0664589e-05
5.7780175e-05
8.3209884e-05
0.00012140755
0.00018290801
0.00029617342
0.00056064936
0.0014481336
2.4966301e-05
2.9910137e-05
4.0664607e-05
5.7778303e-05
8.3206328e-05
0.00012140295
0.00018290333
0.00029616993
0.00056064903
0.0014481413
2.4968023e-05
2.9911045e-05
4.0663989e-05
5.7775917e-05
8.3202437e-05
0.00012139821
0.00018289865
0.00029616643
0.00056064837
0.0014481471
2.4969138e-05
2.9911372e-05
4.0662864e-05
5.777316e-05
8.3198353e-05
0.00012139345
0.00018289405
0.00029616299
0.00056064745
0.001448151
2.4969734e-05
2.9911215e-05
4.0661346e-05
5.7770158e-05
8.3194196e-05
0.00012138877
0.00018288963
0.00029615968
0.00056064633
0.0014481535
2.4969892e-05
2.9910666e-05
4.065954e-05
5.7767016e-05
8.3190066e-05
0.00012138426
0.00018288544
0.00029615654
0.00056064509
0.0014481547
2.4969688e-05
2.9909808e-05
4.0657535e-05
5.7763827e-05
8.3186045e-05
0.00012137998
0.00018288153
0.00029615361
0.00056064377
0.0014481548
2.4969193e-05
2.9908714e-05
4.0655409e-05
5.7760666e-05
8.3182198e-05
0.00012137598
0.00018287793
0.00029615091
0.00056064242
0.001448154
2.4968469e-05
2.990745e-05
4.0653228e-05
5.7757593e-05
8.3178571e-05
0.00012137229
0.00018287467
0.00029614846
0.00056064107
0.0014481526
2.4967573e-05
2.9906073e-05
4.0651049e-05
5.7754657e-05
8.3175203e-05
0.00012136893
0.00018287173
0.00029614627
0.00056063974
0.0014481506
2.4966558e-05
2.9904638e-05
4.0648925e-05
5.7751906e-05
8.3172126e-05
0.00012136591
0.00018286912
0.00029614429
0.00056063841
0.0014481483
)
;

boundaryField
{
    water_inlet
    {
        type            turbulentMixingLengthDissipationRateInlet;
        mixingLength    0.005;
        phi             phi;
        k               k;
        value           uniform 0.00011791765;
    }
    water_outlet
    {
        type            inletOutlet;
        inletValue      uniform 0.0001;
        value           nonuniform List<scalar> 10(2.4966558e-05 2.9904638e-05 4.0648925e-05 5.7751906e-05 8.3172126e-05 0.00012136591 0.00018286912 0.00029614429 0.00056063841 0.0014481483);
    }
    water_wedge1
    {
        type            wedge;
    }
    water_wedge2
    {
        type            wedge;
    }
    water_to_rock
    {
        type            epsilonWallFunction;
        blending        stepwise;
        value           nonuniform List<scalar> 
100
(
0.0013048048
0.0016574915
0.0016622
0.0015600258
0.0014605599
0.0013944164
0.0013593135
0.0013440708
0.0013390507
0.0013385666
0.0013399585
0.00134221
0.0013450164
0.0013483151
0.0013520947
0.0013563343
0.0013609725
0.0013659398
0.0013711899
0.0013766837
0.0013823792
0.0013882301
0.0013941876
0.0014002016
0.0014062194
0.0014121852
0.001418038
0.0014237102
0.0014291288
0.0014342183
0.0014389062
0.0014431293
0.0014468396
0.0014500082
0.0014526267
0.0014547066
0.0014562766
0.0014573791
0.0014580659
0.0014583939
0.0014584216
0.0014582057
0.0014577993
0.0014572497
0.0014565952
0.0014558683
0.0014551009
0.0014543199
0.0014535471
0.0014527992
0.0014520888
0.0014514247
0.0014508129
0.0014502567
0.0014497573
0.0014493147
0.0014489273
0.0014485929
0.0014483087
0.0014480715
0.0014478778
0.0014477236
0.0014476052
0.0014475183
0.0014474591
0.0014474236
0.0014474081
0.0014474096
0.0014474249
0.0014474515
0.0014474869
0.0014475288
0.0014475749
0.0014476232
0.0014476726
0.0014477218
0.0014477698
0.001447816
0.0014478599
0.001447901
0.001447939
0.0014479738
0.0014480051
0.0014480329
0.0014480573
0.0014480784
0.0014480963
0.0014481114
0.0014481237
0.0014481336
0.0014481413
0.0014481471
0.001448151
0.0014481535
0.0014481547
0.0014481548
0.001448154
0.0014481526
0.0014481506
0.0014481483
)
;
    }
}


// ************************************************************************* //
