/*--------------------------------*- C++ -*----------------------------------*\
| =========                 |                                                 |
| \\      /  F ield         | OpenFOAM: The Open Source CFD Toolbox           |
|  \\    /   O peration     | Version:  2506                                  |
|   \\  /    A nd           | Website:  www.openfoam.com                      |
|    \\/     M anipulation  |                                                 |
\*---------------------------------------------------------------------------*/
FoamFile
{
    version     2.0;
    format      ascii;
    arch        "LSB;label=32;scalar=64";
    class       surfaceScalarField;
    location    "15000/water";
    object      phi;
}
// * * * * * * * * * * * * * * * * * * * * * * * * * * * * * * * * * * * * * //

dimensions      [1 0 -1 0 0 0 0];

oriented        oriented;

internalField   nonuniform List<scalar> 
1890
(
-4.1736244e-05
0.0022168351
-0.00015753622
0.0059586937
-0.00032930668
0.0087985477
-0.00054203242
0.010900937
-0.00078239503
0.012402155
-0.0010351825
0.013412336
-0.0012746193
0.014013996
-0.0014359745
0.014245356
-0.001284859
0.0140006
0.012745539
-3.1455819e-05
0.002248291
-0.00011269721
0.0060399351
-0.00023219385
0.0089180443
-0.00037999422
0.011048737
-0.00054594256
0.012568103
-0.00071649905
0.013582893
-0.00086674519
0.014164243
-0.00093361967
0.01431223
-0.00073394523
0.013800926
0.012011594
-2.9138818e-05
0.0022774298
-0.00010672993
0.0061175262
-0.00022105537
0.0090323698
-0.00036160322
0.011189285
-0.00051700135
0.012723501
-0.00067116224
0.013737054
-0.00079396165
0.014287042
-0.0008113975
0.014329666
-0.00056729905
0.013556828
0.011444295
-2.7339931e-05
0.0023047697
-0.00010102594
0.0061912122
-0.00020924232
0.0091405862
-0.00034097887
0.011321022
-0.00048374648
0.012866269
-0.00061911445
0.013872422
-0.00071088084
0.014378808
-0.00067659759
0.014295383
-0.00042025993
0.01330049
0.011024035
-2.5625231e-05
0.0023303949
-9.4386143e-05
0.0062599731
-0.0001950669
0.0092412669
-0.00031669858
0.011442653
-0.00044589484
0.012995465
-0.00056132344
0.01398785
-0.00061882644
0.014436311
-0.00053651144
0.014213068
-0.0002956543
0.013059633
0.01072838
-2.4159497e-05
0.0023545544
-8.8799516e-05
0.0063246131
-0.00018306052
0.0093355279
-0.0002957418
0.011555335
-0.00041210907
0.013111832
-0.00050662361
0.014082365
-0.00052703749
0.014456725
-0.00040878616
0.014094817
-0.00020043412
0.012851281
0.010527946
-2.2965481e-05
0.0023775199
-8.4333469e-05
0.0063859811
-0.00017335344
0.0094245478
-0.00027826877
0.01166025
-0.00038232745
0.013215891
-0.00045438003
0.014154417
-0.00043820737
0.014440552
-0.00030321865
0.013959828
-0.00013378986
0.012681852
0.010394157
-2.2023829e-05
0.0023995437
-8.0769744e-05
0.006444727
-0.00016540571
0.0095091838
-0.00026327207
0.011758116
-0.00035472734
0.013307346
-0.00040244464
0.014202135
-0.0003554601
0.014393568
-0.0002223702
0.013826738
-8.985597e-05
0.012549338
0.010304301
-2.1260552e-05
0.0024208043
-7.7812547e-05
0.006501279
-0.00015855226
0.0095899235
-0.00024948533
0.011849049
-0.00032712263
0.013384984
-0.00034954628
0.014224558
-0.00028212905
0.014326151
-0.00016300196
0.013707611
-6.1425864e-05
0.012447762
0.010242875
-2.0607144e-05
0.0024414114
-7.5216627e-05
0.0065558885
-0.00015223232
0.0096669392
-0.00023577769
0.011932595
-0.00029784631
0.013447052
-0.00029644754
0.01422316
-0.00022023827
0.014249941
-0.00011980443
0.013607177
-4.2688897e-05
0.012370646
0.010200186
-2.0018282e-05
0.0024614297
-7.2804684e-05
0.0066086749
-0.00014600129
0.0097401358
-0.00022120569
0.012007799
-0.00026613507
0.013491982
-0.00024531939
0.014202344
-0.00016974776
0.01417437
-8.7951369e-05
0.013525381
-2.9805917e-05
0.012312501
0.01017038
-1.946354e-05
0.0024808933
-7.0441404e-05
0.0066596528
-0.00013947747
0.0098091719
-0.00020502193
0.012073344
-0.00023228109
0.013519241
-0.00019838521
0.014168448
-0.00012919797
0.014105182
-6.3919232e-05
0.013460102
-2.0486448e-05
0.012269068
0.010149893
-1.8918747e-05
0.002499812
-6.8008106e-05
0.0067087421
-0.0001322987
0.0098734624
-0.00018675577
0.012127801
-0.00019748202
0.013529967
-0.00015698074
0.014127947
-9.6701208e-05
0.014044903
-4.5355844e-05
0.013408757
-1.3427295e-05
0.012237139
0.010136466
-1.8360393e-05
0.0025181724
-6.5381799e-05
0.0067557636
-0.00012410692
0.0099321876
-0.00016633459
0.012170028
-0.00016333315
0.013526966
-0.00012140706
0.014086021
-7.0530676e-05
0.013994027
-3.0720245e-05
0.013368946
-7.8897988e-06
0.012214309
0.010128576
-1.7761426e-05
0.0025359338
-6.2419641e-05
0.0068004218
-0.00011457687
0.0099843448
-0.00014416249
0.012199614
-0.00013123982
0.013514043
-9.1272907e-05
0.014046054
-4.9295766e-05
0.013952049
-1.8985864e-05
0.013338636
-3.4322987e-06
0.012198755
0.010125144
-1.7087922e-05
0.0025530218
-5.8952493e-05
0.0068422863
-0.00010349024
0.010028883
-0.00012105238
0.012217176
-0.00010208274
0.013495073
-6.5898474e-05
0.01400987
-3.1931378e-05
0.013918082
-9.4502488e-06
0.013316155
2.8724998e-07
0.012189018
0.010125431
-1.6296468e-05
0.0025693182
-5.47932e-05
0.0068807831
-9.0832045e-05
0.010064921
-9.799832e-05
0.012224343
-7.6209248e-05
0.013473284
-4.4571188e-05
0.013978231
-1.76264e-05
0.013891138
-1.5566666e-06
0.013300085
3.3720685e-06
0.012184089
0.010128803
-1.533177e-05
0.00258465
-4.9761924e-05
0.0069152132
-7.6852445e-05
0.010092012
-7.5898244e-05
0.012223388
-5.3588563e-05
0.013450975
-2.6634287e-05
0.013951277
-5.7253545e-06
0.013870229
4.9978364e-06
0.013289362
5.8493748e-06
0.012183237
0.010134653
-1.4126751e-05
0.0025987767
-4.3732718e-05
0.0069448192
-6.2044257e-05
0.010110323
-5.5379676e-05
0.012216724
-3.3986181e-05
0.013429581
-1.1512274e-05
0.013928803
4.2370837e-06
0.013854479
1.0367714e-05
0.013283232
7.8666917e-06
0.012185738
0.010142519
-1.2609176e-05
0.0026113859
-3.6694847e-05
0.0069689049
-4.7031658e-05
0.01012066
-3.677583e-05
0.012206468
-1.7081238e-05
0.013409886
1.3275125e-06
0.013910395
1.2526238e-05
0.013843281
1.4773252e-05
0.013280985
9.5152996e-06
0.012190996
0.010152035
-1.0718667e-05
0.0026221046
-2.8801033e-05
0.0069869872
-3.2420643e-05
0.01012428
-2.0182114e-05
0.012194229
-2.4819522e-06
0.013392186
1.2170711e-05
0.013895742
1.9375527e-05
0.013836076
1.8388633e-05
0.013281971
1.0860888e-05
0.012198524
0.010162896
-8.4363197e-06
0.0026305409
-2.0369461e-05
0.0069989204
-1.8684986e-05
0.010122595
-5.5182772e-06
0.012181063
1.0030586e-05
0.013376637
2.1196445e-05
0.013884576
2.5023015e-05
0.013832249
2.1344346e-05
0.01328565
1.1950798e-05
0.012207918
0.010174846
-5.8189665e-06
0.0026363599
-1.1825483e-05
0.0070049269
-6.1106811e-06
0.010116881
7.2767343e-06
0.012167675
2.0570609e-05
0.013363344
2.8684438e-05
0.013876462
2.9654119e-05
0.013831279
2.3737873e-05
0.013291566
1.2819025e-05
0.012218836
0.010187665
-3.0142797e-06
0.0026393741
-3.5961857e-06
0.0070055088
5.1024107e-06
0.010108182
1.8190487e-05
0.012154587
2.9353973e-05
0.01335218
3.4839408e-05
0.013870977
3.3406281e-05
0.013832713
2.5640344e-05
0.013299332
1.348977e-05
0.012230987
0.010201155
-2.3424931e-07
0.0026396084
3.9065993e-06
0.0070013679
1.4739448e-05
0.010097349
2.7284065e-05
0.012142042
3.6558406e-05
0.013342906
3.9810741e-05
0.013867724
3.6375894e-05
0.013836147
2.7099629e-05
0.013308609
1.3978249e-05
0.012244108
0.010215133
2.2768787e-06
0.0026373315
1.0308222e-05
0.0069933366
2.2680817e-05
0.010084976
3.4654639e-05
0.012130069
4.2307271e-05
0.013335253
4.3695459e-05
0.013866336
3.8620457e-05
0.013841222
2.8140424e-05
0.013319089
1.4290054e-05
0.012257959
0.010229423
4.3216772e-06
0.0026330098
1.5394872e-05
0.0069822634
2.8920133e-05
0.010071451
4.037282e-05
0.012118616
4.6676984e-05
0.013328949
4.6545406e-05
0.013866468
4.016321e-05
0.013847605
2.8766255e-05
0.013330486
1.4421449e-05
0.012272304
0.010243845
5.8172644e-06
0.0026271926
1.9123756e-05
0.0069689569
3.3493228e-05
0.010057082
4.449977e-05
0.012107609
4.9715904e-05
0.013323733
4.8383288e-05
0.0138678
4.100478e-05
0.013854983
2.8966715e-05
0.013342524
1.4362911e-05
0.012286907
0.010258208
6.7756998e-06
0.0026204169
2.1562447e-05
0.0069541702
3.648714e-05
0.010042157
4.7108594e-05
0.012096988
5.1467485e-05
0.013319374
4.9222863e-05
0.013870045
4.113856e-05
0.013863067
2.872755e-05
0.013354935
1.4103792e-05
0.012301531
0.010272312
7.2692137e-06
0.0026131476
2.2857365e-05
0.006938582
3.8041705e-05
0.010026973
4.8301657e-05
0.012086728
5.1991879e-05
0.013315684
4.9089319e-05
0.013872948
4.0567295e-05
0.013871589
2.8042228e-05
0.01336746
1.3638277e-05
0.012315935
0.01028595
7.3944768e-06
0.0026057532
2.3198655e-05
0.0069227778
3.8340885e-05
0.01001183
4.8218419e-05
0.01207685
5.1380426e-05
0.013312522
4.8034816e-05
0.013876293
3.9316635e-05
0.013880308
2.6921723e-05
0.013379855
1.2970398e-05
0.012329886
0.01029892
7.2475694e-06
0.0025985056
2.2788741e-05
0.0069072366
3.759612e-05
0.0099970231
4.7032269e-05
0.012067414
4.9759833e-05
0.013309794
4.6145483e-05
0.013879907
3.7442099e-05
0.013889011
2.5399695e-05
0.013391897
1.2116509e-05
0.01234317
0.010311037
6.9114656e-06
0.0025915941
2.181955e-05
0.0068923285
3.6027204e-05
0.0099828154
4.4939299e-05
0.012058502
4.7286941e-05
0.013307446
4.353955e-05
0.013883655
3.5028633e-05
0.013897522
2.3532301e-05
0.013403393
1.1105041e-05
0.012355597
0.010322142
6.452338e-06
0.0025851418
2.0459417e-05
0.0068783215
3.3845441e-05
0.0099694294
4.2143618e-05
0.012050204
4.4137384e-05
0.013305453
4.0358766e-05
0.013887434
3.2184061e-05
0.013905697
2.139338e-05
0.013414184
9.9737612e-06
0.012367016
0.010332116
5.9204471e-06
0.0025792214
1.884793e-05
0.006865394
3.124174e-05
0.0099570357
3.8843384e-05
0.012042602
4.0492214e-05
0.013303804
3.6756544e-05
0.013891169
2.9029185e-05
0.013913424
1.9066989e-05
0.013424146
8.7654414e-06
0.012377318
0.010340881
5.3528228e-06
0.0025738685
1.7096146e-05
0.0068536507
2.8380306e-05
0.0099457515
3.5220352e-05
0.012035762
3.6526103e-05
0.013302498
3.2886517e-05
0.013894809
2.5687776e-05
0.013920623
1.6639874e-05
0.013433194
7.5240232e-06
0.012386434
0.010348405
4.7761172e-06
0.0025690924
1.5289511e-05
0.0068431373
2.5396618e-05
0.0099356444
3.1433291e-05
0.012029726
3.239827e-05
0.013301533
2.8892784e-05
0.013898314
2.2277646e-05
0.013927238
1.4194661e-05
0.013441277
6.2908029e-06
0.012394338
0.010354696
4.2091141e-06
0.0025648833
1.3491874e-05
0.0068338545
2.2398472e-05
0.0099267378
2.7615082e-05
0.012024509
2.8246837e-05
0.013300901
2.4903112e-05
0.013901658
1.8904106e-05
0.013933237
1.1804793e-05
0.013448376
5.1018367e-06
0.012401041
0.010359798
3.6647379e-06
0.0025612186
1.174956e-05
0.0068257697
1.9468693e-05
0.0099190187
2.3872502e-05
0.012020105
2.4186174e-05
0.013300588
2.1024927e-05
0.013904819
1.5655837e-05
0.013938606
9.5314375e-06
0.013454501
3.9865923e-06
0.012406586
0.010363784
3.1515144e-06
0.002558067
1.0094884e-05
0.0068188263
1.6668329e-05
0.0099124452
2.0287489e-05
0.012016486
2.0306102e-05
0.013300569
1.734323e-05
0.013907782
1.2602435e-05
0.013943347
7.4214164e-06
0.013459682
2.9665993e-06
0.01241104
0.010366751
2.6747427e-06
0.0025553923
8.5492459e-06
0.0068129518
1.40402e-05
0.0099069543
1.6919691e-05
0.012013607
1.667316e-05
0.013300816
1.3920863e-05
0.013910534
9.7942791e-06
0.013947473
5.5072272e-06
0.013463969
2.0559194e-06
0.012414492
0.010368807
2.2373135e-06
0.002553155
7.1255627e-06
0.0068080636
1.1612093e-05
0.0099024677
1.3809326e-05
0.012011409
1.3332631e-05
0.013301292
1.0799858e-05
0.013913067
7.2634619e-06
0.01395101
3.807721e-06
0.013467425
1.2614176e-06
0.012417038
0.010370068
1.8403738e-06
0.0025513146
5.8303546e-06
0.0068040736
9.3999042e-06
0.0098988982
1.0980581e-05
0.012009829
1.0311759e-05
0.013301961
8.0043534e-06
0.013915375
5.0264582e-06
0.013953988
2.330421e-06
0.013470121
5.8430696e-07
0.012418784
0.010370653
1.4838261e-06
0.0025498308
4.6653862e-06
0.006800892
7.410295e-06
0.0098961533
8.4447222e-06
0.012008794
7.6229033e-06
0.013302783
5.5435808e-06
0.013917454
3.0868711e-06
0.013956444
1.0747012e-06
0.013472133
3.2064384e-08
0.012419827
0.010370685
1.1666314e-06
0.0025486642
3.6287364e-06
0.0067984299
5.642486e-06
0.0098941395
6.2022484e-06
0.012008235
5.265724e-06
0.013303719
3.4141948e-06
0.013919305
1.4389784e-06
0.01395842
4.1250761e-08
0.013473531
-4.1057803e-07
0.012420279
0.010370274
8.8713205e-07
0.002547777
2.715961e-06
0.0067966011
4.0904615e-06
0.009892765
4.2460421e-06
0.012008079
3.2313416e-06
0.013304734
1.6059678e-06
0.013920931
7.6900713e-08
0.013959949
-7.9385223e-07
0.013474401
-7.6896379e-07
0.012420254
0.010369505
6.4330898e-07
0.0025471337
1.921101e-06
0.0067953233
2.7450139e-06
0.0098919411
2.564574e-06
0.012008259
1.506916e-06
0.013305792
1.0857867e-07
0.013922329
-1.0276702e-06
0.013961085
-1.4635e-06
0.013474837
-1.0477741e-06
0.012419838
0.010368457
4.3292044e-07
0.0025467008
1.2372417e-06
0.006794519
1.5949721e-06
0.0098915834
1.1441067e-06
0.01200871
7.9163885e-08
0.013306857
-1.1080181e-06
0.013923516
-1.911526e-06
0.013961888
-1.9809591e-06
0.013474907
-1.2532127e-06
0.01241911
0.010367204
2.536542e-07
0.0025464471
6.5717459e-07
0.0067941155
6.2906123e-07
0.0098916115
-2.9366391e-08
0.012009369
-1.0812691e-06
0.013307909
-2.0811659e-06
0.013924516
-2.5945258e-06
0.013962402
-2.3609809e-06
0.013474673
-1.3931513e-06
0.012418142
0.010365811
1.0327135e-07
0.0025463439
1.7393921e-07
0.0067940448
-1.6607278e-07
0.0098919515
-9.8223773e-07
0.012010185
-2.0093102e-06
0.013308936
-2.8342472e-06
0.013925341
-3.0973909e-06
0.013962665
-2.6196403e-06
0.013474195
-1.4762204e-06
0.012416999
0.010364335
-2.0700816e-08
0.0025463646
-2.2166546e-07
0.0067942457
-8.102776e-07
0.0098925401
-1.7433455e-06
0.012011118
-2.7280233e-06
0.01330992
-3.3907214e-06
0.013926004
-3.4417854e-06
0.013962716
-2.7734713e-06
0.013473527
-1.5111863e-06
0.012415737
0.010362824
-1.2127545e-07
0.0025464858
-5.404408e-07
0.0067946649
-1.3222463e-06
0.0098933219
-2.3317342e-06
0.012012127
-3.2602235e-06
0.013310849
-3.7745554e-06
0.013926518
-3.6494595e-06
0.013962591
-2.8387255e-06
0.013472716
-1.5064169e-06
0.012414404
0.010361317
-2.012548e-07
0.0025466871
-7.9115526e-07
0.0067952548
-1.7157201e-06
0.0098942464
-2.7667668e-06
0.012013178
-3.6288758e-06
0.013311711
-4.0094636e-06
0.013926899
-3.7415656e-06
0.013962323
-2.8309411e-06
0.013471806
-1.4698648e-06
0.012413043
0.010359847
-2.6290553e-07
0.00254695
-9.812731e-07
0.0067959732
-2.0043082e-06
0.0098952695
-3.0674522e-06
0.012014242
-3.8562763e-06
0.0133125
-4.1181059e-06
0.013927161
-3.7379349e-06
0.013961943
-2.7643458e-06
0.013470832
-1.408555e-06
0.012411687
0.010358439
-3.0838257e-07
0.0025472584
-1.1180447e-06
0.0067967829
-2.2012447e-06
0.0098963527
-3.2521268e-06
0.012015292
-3.9636873e-06
0.013313211
-4.121761e-06
0.013927319
-3.6568629e-06
0.013961478
-2.651846e-06
0.013469827
-1.3288272e-06
0.012410364
0.01035711
-3.3971321e-07
0.0025475981
-1.2083712e-06
0.0067976515
-2.3191025e-06
0.0098974634
-3.3380697e-06
0.012016311
-3.9708812e-06
0.013313844
-4.0398879e-06
0.013927388
-3.5147486e-06
0.013960953
-2.5047408e-06
0.013468817
-1.2360441e-06
0.012409096
0.010355874
-3.5880576e-07
0.0025479569
-1.258752e-06
0.0067985515
-2.3696719e-06
0.0098985744
-3.341328e-06
0.012017283
-3.8959692e-06
0.013314399
-3.8899895e-06
0.013927382
-3.3260461e-06
0.013960389
-2.3327746e-06
0.013467824
-1.1347462e-06
0.012407898
0.010354739
-3.6744119e-07
0.0025483243
-1.2752385e-06
0.0067994593
-2.3638588e-06
0.009899663
-3.2765803e-06
0.012018196
-3.7552616e-06
0.013314878
-3.6875395e-06
0.013927314
-3.1032468e-06
0.013959805
-2.1441552e-06
0.013466865
-1.0286621e-06
0.012406782
0.01035371
-3.6726697e-07
0.0025486916
-1.26341e-06
0.0068003554
-2.3116425e-06
0.0099007112
-3.1570967e-06
0.012019041
-3.5632692e-06
0.013315284
-3.446032e-06
0.013927197
-2.8569923e-06
0.013959215
-1.9456765e-06
0.013465953
-9.2074744e-07
0.012405757
0.01035279
-3.59807e-07
0.0025490514
-1.2283916e-06
0.006801224
-2.2221071e-06
0.0099017049
-2.994814e-06
0.012019814
-3.3328442e-06
0.013315622
-3.1771935e-06
0.013927041
-2.5963301e-06
0.013958635
-1.7429744e-06
0.0134651
-8.1339246e-07
0.012404828
0.010351976
-3.4646244e-07
0.0025493979
-1.1748688e-06
0.0068020524
-2.1034873e-06
0.0099026335
-2.8004224e-06
0.012020511
-3.0753355e-06
0.013315897
-2.8912144e-06
0.013926857
-2.3289793e-06
0.013958072
-1.5407584e-06
0.013464312
-7.0855941e-07
0.012403996
0.010351268
-3.2850965e-07
0.0025497264
-1.1070947e-06
0.006802831
-1.9631976e-06
0.0099034896
-2.5834478e-06
0.012021131
-2.8007191e-06
0.013316114
-2.5969218e-06
0.013926653
-2.061524e-06
0.013957537
-1.3429881e-06
0.013463593
-6.078405e-07
0.01240326
0.01035066
-3.0711126e-07
0.0025500335
-1.0289163e-06
0.0068035528
-1.8078892e-06
0.0099042686
-2.3523375e-06
0.012021676
-2.5177423e-06
0.013316279
-2.301961e-06
0.013926437
-1.7996083e-06
0.013957035
-1.1530377e-06
0.013462947
-5.1266314e-07
0.01240262
0.010350147
-2.8329773e-07
0.0025503168
-9.4374299e-07
0.0068042132
-1.6434051e-06
0.0099049683
-2.1144232e-06
0.012022147
-2.2338692e-06
0.013316399
-2.0127392e-06
0.013926216
-1.5478712e-06
0.01395657
-9.7362547e-07
0.013462372
-4.2409361e-07
0.012402071
0.010349723
-2.5797477e-07
0.0025505748
-8.5455045e-07
0.0068048098
-1.4747827e-06
0.0099055885
-1.875912e-06
0.012022548
-1.9552891e-06
0.013316478
-1.7344262e-06
0.013925995
-1.3099297e-06
0.013956145
-8.0678828e-07
0.013461869
-3.4293083e-07
0.012401607
0.01034938
-2.319175e-07
0.0025508067
-7.6386575e-07
0.0068053418
-1.3062305e-06
0.0099061309
-1.6418716e-06
0.012022883
-1.6868876e-06
0.013316523
-1.4709238e-06
0.013925779
-1.0883412e-06
0.013955763
-6.5382297e-07
0.013461435
-2.696118e-07
0.012401223
0.010349111
-2.0576889e-07
0.0025510125
-6.7376727e-07
0.0068058098
-1.141137e-06
0.0099065983
-1.4162444e-06
0.012023159
-1.4322767e-06
0.013316539
-1.2248938e-06
0.013925572
-8.8461614e-07
0.013955422
-5.1528021e-07
0.013461065
-2.0414553e-07
0.012400911
0.010348906
-1.800621e-07
0.0025511925
-5.8593861e-07
0.0068062156
-9.8216741e-07
0.0099069945
-1.2020022e-06
0.012023378
-1.1940079e-06
0.013316531
-9.9800074e-07
0.013925376
-6.9946114e-07
0.013955124
-3.9118138e-07
0.013460757
-1.4635242e-07
0.012400667
0.01034876
-1.5522132e-07
0.0025513478
-5.016977e-07
0.0068065621
-8.3134135e-07
0.0099073241
-1.0012804e-06
0.012023548
-9.7374256e-07
0.013316504
-7.911152e-07
0.013925193
-5.3297509e-07
0.013954866
-2.8115538e-07
0.013460505
-9.5821288e-08
0.012400481
0.010348664
-1.3158501e-07
0.0025514793
-4.2206866e-07
0.0068068526
-6.901721e-07
0.0099075922
-8.1558604e-07
0.012023674
-7.7252146e-07
0.013316461
-6.0459872e-07
0.013925026
-3.8491717e-07
0.013954646
-1.8466693e-07
0.013460305
-5.2125926e-08
0.012400349
0.010348612
-1.0941807e-07
0.0025515888
-3.478305e-07
0.006807091
-5.5976594e-07
0.0099078042
-6.4594394e-07
0.01202376
-5.909481e-07
0.013316406
-4.3850689e-07
0.013924873
-2.5491046e-07
0.013954462
-1.0114166e-07
0.013460151
-1.4435274e-08
0.012400262
0.010348598
-8.8914438e-08
0.0025516777
-2.7954903e-07
0.0068072817
-4.4088684e-07
0.0099079655
-4.929934e-07
0.012023812
-4.292795e-07
0.013316342
-2.9265032e-07
0.013924736
-1.4239636e-07
0.013954312
-2.9609444e-08
0.013460038
1.7573661e-08
0.012400215
0.010348615
-7.0213636e-08
0.0025517479
-2.1761224e-07
0.0068074291
-3.3401572e-07
0.0099080819
-3.5704408e-07
0.012023835
-2.8747201e-07
0.013316272
-1.6656998e-07
0.013924616
-4.6440867e-08
0.013954192
3.0420414e-08
0.013459962
4.329993e-08
0.012400202
0.010348659
-5.3390263e-08
0.0025518013
-1.6220628e-07
0.0068075379
-2.3929581e-07
0.009908159
-2.3797742e-07
0.012023834
-1.6498848e-07
0.013316199
-5.9221129e-08
0.01392451
3.384053e-08
0.013954099
7.8819742e-08
0.013459917
6.3000828e-08
0.012400218
0.010348722
-3.8462375e-08
0.0025518397
-1.1333603e-07
0.0068076128
-1.565511e-07
0.0099082023
-1.3524163e-07
0.012023812
-6.0739932e-08
0.013316125
3.0603242e-08
0.013924418
9.881677e-08
0.013954031
1.1627986e-07
0.013459899
7.7522277e-08
0.012400257
0.010348799
-2.540037e-08
0.0025518651
-7.0839258e-08
0.0068076582
-8.530705e-08
0.0099082167
-4.7829312e-08
0.012023775
2.6553208e-08
0.013316051
1.0359973e-07
0.013924341
1.4948037e-07
0.013953985
1.4415058e-07
0.013459905
8.7593076e-08
0.012400313
0.010348887
-1.4125998e-08
0.0025518793
-3.4393076e-08
0.0068076785
-2.4763064e-08
0.0099082071
2.5369708e-08
0.012023725
9.7733775e-08
0.013315978
1.6094186e-07
0.013924278
1.8761679e-07
0.013953958
1.6382099e-07
0.013459928
9.3958897e-08
0.012400383
0.010348981
-4.5266255e-09
0.0025518838
-3.5534266e-09
0.0068076775
2.5780369e-08
0.0099081778
8.5058793e-08
0.012023666
1.5389086e-07
0.013315909
2.0447715e-07
0.013924228
2.1491109e-07
0.013953948
1.7653157e-07
0.013459967
9.7243206e-08
0.012400462
0.010349078
3.5020111e-09
0.0025518803
2.1989489e-08
0.006807659
6.6822478e-08
0.0099081329
1.3219575e-07
0.0120236
1.9674448e-07
0.013315845
2.359858e-07
0.013924188
2.3294115e-07
0.013953951
1.8343109e-07
0.013460016
9.8033806e-08
0.012400548
0.010349176
1.0038597e-08
0.0025518703
4.2506719e-08
0.0068076265
9.9091932e-08
0.0099080764
1.6813518e-07
0.012023531
2.2787761e-07
0.013315785
2.5705518e-07
0.013924159
2.4306482e-07
0.013953965
1.8546004e-07
0.013460074
9.676087e-08
0.012400636
0.010349273
1.519805e-08
0.0025518551
5.846309e-08
0.0068075833
1.2351957e-07
0.0099080113
1.9416661e-07
0.012023461
2.4876931e-07
0.01331573
2.6913124e-07
0.013924139
2.4648287e-07
0.013953988
1.8343152e-07
0.013460137
9.3820291e-08
0.012400726
0.010349367
1.9114653e-08
0.002551836
7.0339946e-08
0.0068075321
1.4099939e-07
0.0099079407
2.1150961e-07
0.01202339
2.607833e-07
0.013315681
2.7351642e-07
0.013924126
2.4425343e-07
0.013954017
1.780351e-07
0.013460203
8.9494158e-08
0.012400815
0.010349456
2.1930145e-08
0.002551814
7.8619695e-08
0.0068074754
1.5240646e-07
0.0099078669
2.2134164e-07
0.012023321
2.6522987e-07
0.013315637
2.7145108e-07
0.01392412
2.3737697e-07
0.013954051
1.6993882e-07
0.013460271
8.4119727e-08
0.0124009
0.01034954
2.3778693e-08
0.0025517902
8.3764904e-08
0.0068074154
1.5857292e-07
0.0099077921
2.247769e-07
0.012023255
2.6333029e-07
0.013315599
2.6408041e-07
0.013924119
2.2676744e-07
0.013954088
1.5972283e-07
0.013460338
7.7909911e-08
0.012400982
0.010349618
2.4801161e-08
0.0025517654
8.624196e-08
0.006807354
1.6033083e-07
0.009907718
2.2291729e-07
0.012023192
2.5629756e-07
0.013315565
2.5254637e-07
0.013924123
2.1335054e-07
0.013954127
1.4802483e-07
0.013460403
7.1213299e-08
0.012401059
0.010349689
2.5122566e-08
0.0025517403
8.6479947e-08
0.0068072926
1.5844152e-07
0.009907646
2.1676813e-07
0.012023134
2.4521962e-07
0.013315537
2.3786077e-07
0.01392413
1.9793672e-07
0.013954167
1.3536538e-07
0.013460466
6.4219432e-08
0.01240113
0.010349753
2.4870192e-08
0.0025517155
8.4895316e-08
0.0068072326
1.5363538e-07
0.0099075773
2.072783e-07
0.01202308
2.3112232e-07
0.013315513
2.2097509e-07
0.01392414
1.8128626e-07
0.013954207
1.2226336e-07
0.013460525
5.7234926e-08
0.012401195
0.010349811
2.4148605e-08
0.0025516913
8.1848252e-08
0.0068071749
1.4653929e-07
0.0099075126
1.952542e-07
0.012023032
2.1484483e-07
0.013315494
2.0263691e-07
0.013924153
1.6396457e-07
0.013954246
1.0905712e-07
0.01346058
5.0336625e-08
0.012401254
0.010349861
2.3062461e-08
0.0025516682
7.7675094e-08
0.0068071203
1.3773111e-07
0.0099074525
1.8142302e-07
0.012022988
1.9714956e-07
0.013315478
1.8352198e-07
0.013924166
1.4648784e-07
0.013954283
9.607967e-08
0.01346063
4.3721823e-08
0.012401306
0.010349905
2.1694642e-08
0.0025516465
7.2655596e-08
0.0068070693
1.276829e-07
0.0099073975
1.6637101e-07
0.012022949
1.7861423e-07
0.013315466
1.6411226e-07
0.013924181
1.2918433e-07
0.013954318
8.3492003e-08
0.013460676
3.7398623e-08
0.012401352
0.010349942
2.012777e-08
0.0025516264
6.7048124e-08
0.0068070224
1.1682724e-07
0.0099073477
1.5062134e-07
0.012022915
1.5976697e-07
0.013315456
1.4484934e-07
0.013924196
1.1236736e-07
0.01395435
7.1480017e-08
0.013460716
3.1482381e-08
0.012401392
0.010349974
1.8423855e-08
0.002551608
6.1061011e-08
0.0068069797
1.0550715e-07
0.0099073033
1.3459129e-07
0.012022886
1.4100112e-07
0.01331545
1.260466e-07
0.013924211
9.6236455e-08
0.01395438
6.0126029e-08
0.013460753
2.5936383e-08
0.012401427
0.01035
1.6647601e-08
0.0025515913
5.4894018e-08
0.0068069415
9.4053095e-08
0.0099072641
1.1867488e-07
0.012022862
1.2271025e-07
0.013315446
1.0802889e-07
0.013924225
8.1019942e-08
0.013954407
4.9572194e-08
0.013460784
2.0866789e-08
0.012401455
0.01035002
1.4845717e-08
0.0025515765
4.8701593e-08
0.0068069076
8.2716425e-08
0.0099072301
1.0317304e-07
0.012022841
1.0517719e-07
0.013315444
9.1024328e-08
0.013924239
6.6867948e-08
0.013954431
3.9888688e-08
0.013460811
1.6258507e-08
0.012401479
0.010350037
1.3064595e-08
0.0025515634
4.2626546e-08
0.006806878
7.172968e-08
0.009907201
8.8357951e-08
0.012022825
8.8665849e-08
0.013315444
7.5241971e-08
0.013924253
5.3921539e-08
0.013954452
3.1159379e-08
0.013460834
1.2178967e-08
0.012401498
0.010350049
1.1335172e-08
0.0025515521
3.6771705e-08
0.0068068526
6.1256508e-08
0.0099071765
7.4414598e-08
0.012022811
7.3336029e-08
0.013315445
6.0796089e-08
0.013924265
4.224356e-08
0.013954471
2.3398485e-08
0.013460853
8.5988055e-09
0.012401513
0.010350057
9.6857331e-09
0.0025515424
3.1221958e-08
0.0068068311
5.1427761e-08
0.0099071562
6.1483656e-08
0.012022801
5.9304139e-08
0.013315447
4.775633e-08
0.013924277
3.1858004e-08
0.013954487
1.6608858e-08
0.013460868
5.5234229e-09
0.012401524
0.010350063
8.1293184e-09
0.0025515343
2.6023315e-08
0.0068068132
4.2309901e-08
0.00990714
4.9625673e-08
0.012022794
4.6601362e-08
0.01331545
3.6113059e-08
0.013924287
2.2719254e-08
0.0139545
1.0722637e-08
0.01346088
2.9005094e-09
0.012401531
0.010350066
6.6863169e-09
0.0025515276
2.1217119e-08
0.0068067986
3.3978403e-08
0.0099071272
3.897224e-08
0.012022789
3.5422407e-08
0.013315453
2.611379e-08
0.013924297
1.5092306e-08
0.013954511
5.9782709e-09
0.013460889
8.7925699e-10
0.012401537
0.010350067
3.0289665e-09
9.5910102e-09
1.5252929e-08
1.7291721e-08
1.5463048e-08
1.1094028e-08
6.1399723e-09
2.2114548e-09
2.3059112e-10
)
;

boundaryField
{
    water_inlet
    {
        type            calculated;
        value           nonuniform List<scalar> 10(-0.0021750989 -0.0058428937 -0.0086267772 -0.010688211 -0.012161792 -0.013159549 -0.01377456 -0.014084001 -0.014151716 -0.014030398);
    }
    water_outlet
    {
        type            calculated;
        value           nonuniform List<scalar> 10(0.0025515246 0.0068067921 0.0099071216 0.012022787 0.013315455 0.013924301 0.013954516 0.013460893 0.012401539 0.010350067);
    }
    water_wedge1
    {
        type            wedge;
        value           nonuniform List<scalar> 
1000
(
-1.1295959e-13
-1.4267622e-13
-1.1216196e-13
-1.0631324e-13
-9.9357251e-14
-9.3389121e-14
-8.8692049e-14
-8.4954156e-14
-8.1973417e-14
-7.9488383e-14
-7.7282381e-14
-7.5240055e-14
-7.3266094e-14
-7.1279966e-14
-6.9185315e-14
-6.6857363e-14
-6.4133682e-14
-6.0815845e-14
-5.6668129e-14
-5.1410538e-14
-4.4793831e-14
-3.6658269e-14
-2.7080673e-14
-1.656031e-14
-5.8635118e-15
4.0642942e-15
1.2371633e-14
1.8673204e-14
2.2900841e-14
2.5297705e-14
2.6219482e-14
2.6007668e-14
2.5031776e-14
2.3514476e-14
2.1685106e-14
1.9698116e-14
1.7624272e-14
1.5588175e-14
1.3612294e-14
1.1734332e-14
9.9962991e-15
8.3921213e-15
6.9341025e-15
5.6119911e-15
4.4356462e-15
3.4047542e-15
2.5013654e-15
1.7160504e-15
1.0436263e-15
4.7622683e-16
6.6959798e-18
-3.6636011e-16
-6.6678869e-16
-9.095739e-16
-1.0896574e-15
-1.2103067e-15
-1.2831503e-15
-1.3227266e-15
-1.3324319e-15
-1.313768e-15
-1.2699379e-15
-1.2084916e-15
-1.133473e-15
-1.0460339e-15
-9.5520082e-16
-8.6281897e-16
-7.6854418e-16
-6.7357509e-16
-5.8276088e-16
-4.9431273e-16
-4.1220903e-16
-3.4220671e-16
-2.7476662e-16
-2.0989808e-16
-1.4986146e-16
-1.0560859e-16
-6.4361018e-17
-2.8312089e-17
2.7238813e-18
2.7950019e-17
4.6070689e-17
6.0201358e-17
7.0475233e-17
8.027009e-17
8.5345495e-17
9.0994351e-17
8.5669403e-17
7.9315876e-17
8.0950459e-17
8.0755418e-17
6.774467e-17
6.3218059e-17
6.1377762e-17
5.2717568e-17
4.2421649e-17
3.4816429e-17
2.9930994e-17
2.68537e-17
2.2593877e-17
7.7905134e-18
-6.8081265e-13
-1.0335461e-12
-8.3929109e-13
-7.975281e-13
-7.4939958e-13
-7.0313704e-13
-6.6536333e-13
-6.3522823e-13
-6.109364e-13
-5.9052862e-13
-5.7244824e-13
-5.5560472e-13
-5.3912433e-13
-5.222002e-13
-5.0397614e-13
-4.8343328e-13
-4.5934455e-13
-4.3018788e-13
-3.9436735e-13
-3.5055605e-13
-2.9813965e-13
-2.3765389e-13
-1.7103206e-13
-1.0155486e-13
-3.3371881e-14
2.8945939e-14
8.1483721e-14
1.2214714e-13
1.5063707e-13
1.6797761e-13
1.7589545e-13
1.763513e-13
1.7126703e-13
1.6227372e-13
1.5073559e-13
1.3769836e-13
1.2392997e-13
1.1004081e-13
9.6440747e-14
8.3436531e-14
7.1219406e-14
5.9899569e-14
4.9552763e-14
4.0195847e-14
3.1832627e-14
2.4424761e-14
1.7935791e-14
1.2316096e-14
7.5094634e-15
3.4644903e-15
1.097578e-16
-2.6218065e-15
-4.8034695e-15
-6.5014366e-15
-7.7683902e-15
-8.6552084e-15
-9.2130122e-15
-9.4929609e-15
-9.5367777e-15
-9.3814323e-15
-9.065663e-15
-8.6211598e-15
-8.0827256e-15
-7.4771567e-15
-6.8293857e-15
-6.1591933e-15
-5.4789499e-15
-4.8063004e-15
-4.1570495e-15
-3.5429773e-15
-2.9606235e-15
-2.414802e-15
-1.9217113e-15
-1.4802425e-15
-1.0830962e-15
-7.3593306e-16
-4.3180709e-16
-1.7397715e-16
4.2310658e-17
2.2064577e-16
3.5757377e-16
4.6452742e-16
5.4272249e-16
5.9552802e-16
6.2962188e-16
6.4326865e-16
6.4042778e-16
6.2643436e-16
6.0013552e-16
5.6226568e-16
5.1854423e-16
4.8000534e-16
4.3673768e-16
3.8959892e-16
3.4037439e-16
2.9297519e-16
2.5442512e-16
2.1620437e-16
1.7633492e-16
1.0017432e-16
3.1339104e-12
4.8023004e-12
3.9072338e-12
3.7113866e-12
3.490055e-12
3.2689352e-12
3.08602e-12
2.9387799e-12
2.8176144e-12
2.7124742e-12
2.6152685e-12
2.5197169e-12
2.4205061e-12
2.3123541e-12
2.1894924e-12
2.0461135e-12
1.8774932e-12
1.681099e-12
1.4574251e-12
1.2105522e-12
9.4809449e-13
6.8017141e-13
4.176035e-13
1.7020332e-13
-5.3292068e-14
-2.455275e-13
-4.0215546e-13
-5.2204018e-13
-6.0637352e-13
-6.5807682e-13
-6.8129928e-13
-6.8086959e-13
-6.6175834e-13
-6.2867323e-13
-5.8579172e-13
-5.366485e-13
-4.8413267e-13
-4.3050407e-13
-3.7748971e-13
-3.263557e-13