/*--------------------------------*- C++ -*----------------------------------*\
| =========                 |                                                 |
| \\      /  F ield         | OpenFOAM: The Open Source CFD Toolbox           |
|  \\    /   O peration     | Version:  2506                                  |
|   \\  /    A nd           | Website:  www.openfoam.com                      |
|    \\/     M anipulation  |                                                 |
\*---------------------------------------------------------------------------*/
FoamFile
{
    version     2.0;
    format      ascii;
    arch        "LSB;label=32;scalar=64";
    class       volVectorField;
    location    "15000/water";
    object      U;
}
// * * * * * * * * * * * * * * * * * * * * * * * * * * * * * * * * * * * * * //

dimensions      [0 1 -1 0 0 0 0];

internalField   nonuniform List<vector> 
1000
(
(0.25225587 -0.00012859767 1.8812719e-18)
(0.25226258 -0.00027067836 8.0694838e-19)
(0.25227485 -0.00041450539 2.3786677e-18)
(0.25228819 -0.00055572716 6.9029424e-19)
(0.25229018 -0.00068575789 9.2823427e-19)
(0.25223998 -0.00079863172 -3.1027777e-21)
(0.25200713 -0.00089615194 -1.3205886e-19)
(0.25115686 -0.0010460356 -3.4625461e-19)
(0.24780473 -0.0012820719 -4.572892e-20)
(0.23308261 0.0010121611 -3.5926147e-19)
(0.25653043 -7.7330443e-05 1.5931728e-18)
(0.25653977 -0.00018903829 1.7072699e-18)
(0.25655871 -0.00029096535 2.7958698e-18)
(0.25657276 -0.00039024486 1.0313585e-18)
(0.25654377 -0.00048175038 8.4498356e-19)
(0.25636039 -0.00055898441 2.888517e-20)
(0.25570613 -0.00060536497 -2.4152454e-19)
(0.25355952 -0.00065441365 -4.8796745e-19)
(0.24574266 -0.00084724775 -2.0980258e-19)
(0.21968686 0.00025718804 -4.0510234e-19)
(0.26021787 -7.3909968e-05 -9.1060958e-19)
(0.26022468 -0.0001805983 5.6960753e-19)
(0.26023383 -0.00027741907 1.2070109e-18)
(0.26021807 -0.00037159736 4.9992819e-19)
(0.26010153 -0.00045735763 -1.8159631e-19)
(0.25968006 -0.00053044581 -9.8858064e-21)
(0.25840621 -0.00057093069 -1.5672694e-19)
(0.25452354 -0.00056554717 -4.0510793e-19)
(0.24186464 -0.0006198767 -4.3210378e-19)
(0.20839343 1.1252755e-05 -3.7211491e-19)
(0.26340527 -6.8945962e-05 -5.6287607e-19)
(0.26340956 -0.00017058504 3.5290229e-19)
(0.26340597 -0.00026279222 1.1252826e-18)
(0.2633478 -0.00035138356 3.7373828e-19)
(0.26310913 -0.00042951118 -2.5471961e-19)
(0.26237282 -0.00049394952 -3.6470349e-19)
(0.26030372 -0.00052750907 -2.3145085e-19)
(0.25430845 -0.00049289806 -3.7588676e-19)
(0.23723184 -0.00045934161 -3.9356602e-19)
(0.19958847 -4.88762e-05 -3.300785e-19)
(0.26641628 -6.4388926e-05 -6.8792978e-19)
(0.26641556 -0.00015946868 1.3378025e-18)
(0.266392 -0.00024539851 8.1829978e-19)
(0.26627267 -0.00032748757 3.3060196e-19)
(0.26586989 -0.00039791737 -8.5048387e-20)
(0.26472852 -0.00045250604 -8.563499e-21)
(0.26164539 -0.00047360808 -1.0055235e-19)
(0.25321243 -0.00041483719 -3.3958357e-19)
(0.23271017 -0.00033459199 -4.1510113e-19)
(0.19329522 -5.0633621e-05 -3.3932685e-19)
(0.26927574 -6.086749e-05 1.0374703e-19)
(0.26926716 -0.0001502432 7.6578602e-19)
(0.26921481 -0.00023070435 5.7828582e-19)
(0.26901237 -0.00030702732 4.7479514e-19)
(0.26839648 -0.00037050009 3.1026604e-19)
(0.26673517 -0.00041493276 2.3030635e-19)
(0.26236786 -0.00041871906 -9.0747246e-21)
(0.25136275 -0.00033835098 -3.1583863e-19)
(0.22869803 -0.00023662954 -2.9371981e-19)
(0.18902135 -3.949545e-05 -3.561203e-19)
(0.27197991 -5.8057505e-05 2.6239688e-18)
(0.27196007 -0.00014287128 2.0350144e-18)
(0.2718683 -0.00021894827 2.289374e-19)
(0.2715565 -0.00029030353 4.5080657e-19)
(0.27066608 -0.00034729014 4.6315485e-19)
(0.26833153 -0.00038068351 6.9623636e-20)
(0.26239849 -0.00036437379 -2.4369702e-19)
(0.24902638 -0.00026852614 -3.2568305e-19)
(0.22536099 -0.00016272833 -1.8917623e-19)
(0.18616827 -2.8774644e-05 -3.0234469e-19)
(0.27455816 -5.5861798e-05 -3.1382843e-19)
(0.27452281 -0.00013703202 1.6289515e-18)
(0.27437848 -0.00020952007 6.5438657e-19)
(0.27392442 -0.00027640501 1.5482986e-19)
(0.27267858 -0.0003268211 2.6674013e-19)
(0.26947688 -0.00034738478 3.1952588e-19)
(0.26178467 -0.00031092738 6.3880993e-21)
(0.24657378 -0.00020816915 -1.8787572e-19)
(0.22271518 -0.0001105013 -2.5937273e-19)
(0.18425838 -2.0836549e-05 -2.3956552e-19)
(0.27704027 -5.4085689e-05 -1.223252e-19)
(0.27698407 -0.00013225429 4.524316e-19)
(0.27677058 -0.00020162564 1.1690071e-18)
(0.27613171 -0.00026417282 4.2588773e-19)
(0.27442314 -0.00030720585 5.3648343e-20)
(0.27014173 -0.00031294781 1.6458952e-19)
(0.26068998 -0.00025925787 6.0546983e-20)
(0.2442983 -0.00015836432 1.9788258e-20)
(0.22067581 -7.5408382e-05 4.5111131e-21)
(0.18296199 -1.5153394e-05 -7.196829e-20)
(0.2794434 -5.2555731e-05 2.65777e-18)
(0.27935955 -0.00012814129 1.8130113e-18)
(0.27905543 -0.00019460742 5.0882626e-19)
(0.27817576 -0.00025259224 5.2990105e-19)
(0.27586798 -0.0002867344 7.0448523e-20)
(0.27032644 -0.00027659196 9.8890525e-20)
(0.259335 -0.00021094016 -1.3935375e-19)
(0.24234212 -0.00011891205 -5.9090358e-20)
(0.21912382 -5.2171916e-05 -9.1490056e-20)
(0.18206601 -1.0945922e-05 -1.5642643e-19)
(0.28177654 -5.1166647e-05 1.818628e-18)
(0.28165619 -0.00012441967 1.4568229e-19)
(0.2812333 -0.0001879729 -3.0574808e-19)
(0.28003901 -0.00024077443 1.0345126e-18)
(0.27697399 -0.00026417632 3.5700041e-19)
(0.27008762 -0.00023880399 3.8977333e-20)
(0.25792266 -0.00016762322 -1.3741099e-19)
(0.24073178 -8.8481471e-05 -2.1563818e-19)
(0.21795021 -3.6445972e-05 -2.5440861e-19)
(0.18143938 -7.6996022e-06 -1.7223328e-19)
(0.28404476 -4.985476e-05 1.8256144e-18)
(0.28387625 -0.00012089419 3.8958068e-19)
(0.28329739 -0.00018132904 -3.7460226e-19)
(0.28169344 -0.00022787703 8.6041614e-19)
(0.27771473 -0.00023897382 4.6572666e-19)
(0.2695351 -0.00020087562 1.3374372e-20)
(0.25659136 -0.00013036532 -1.2627931e-19)
(0.23943779 -6.5171602e-05 -1.5377166e-19)
(0.21706902 -2.5325741e-05 -1.9551526e-19)
(0.18100325 -5.1222397e-06 -1.9780748e-19)
(0.28625048 -4.8572084e-05 1.3073336e-18)
(0.28601827 -0.0001174009 5.0296562e-19)
(0.28523426 -0.00017430187 3.1893315e-19)
(0.28310494 -0.00021314191 5.4880463e-19)
(0.27809439 -0.00021129074 3.6719448e-19)
(0.26879942 -0.00016439841 2.1168387e-19)
(0.25541092 -9.9329634e-05 -5.2854107e-20)
(0.23841399 -4.7155966e-05 -1.8741218e-19)
(0.21641538 -1.7079123e-05 -1.6941197e-19)
(0.18070893 -3.043595e-06 -1.9510391e-19)
(0.28839354 -4.7270965e-05 1.3458111e-18)
(0.28807682 -0.00011377575 1.1510267e-18)
(0.28702341 -0.00016645979 8.6203736e-19)
(0.28424078 -0.00019602598 3.5923288e-19)
(0.2781555 -0.00018188541 2.686434e-19)
(0.26799601 -0.00013078984 1.6934951e-19)
(0.25440306 -7.3937152e-05 -2.5426252e-19)
(0.23761476 -3.3003836e-05 -3.0160469e-19)
(0.21594074 -1.0716014e-05 -2.2950063e-19)
(0.18052449 -1.3526984e-06 -2.4311804e-19)
(0.29047097 -4.589144e-05 1.5797764e-18)
(0.29004194 -0.00010982906 3.2753196e-18)
(0.28863779 -0.00015729294 9.498678e-19)
(0.28508024 -0.00017633834 4.1783525e-20)
(0.27797084 -0.00015188696 4.1933724e-19)
(0.26720626 -0.00010094642 -3.8932787e-20)
(0.25356401 -5.3258397e-05 -2.0815831e-19)
(0.23700053 -2.1698294e-05 -1.1464914e-19)
(0.21560861 -5.6593975e-06 -1.1430903e-19)
(0.18042759 3.4066082e-08 -5.844071e-20)
(0.29247637 -4.4351533e-05 1.5752401e-18)
(0.2918983 -0.00010531333 5.1895751e-19)
(0.2900463 -0.00014628186 4.9805408e-19)
(0.28562471 -0.0001543062 1.1998985e-18)
(0.27762409 -0.00012253903 6.5390058e-19)
(0.26647733 -7.514743e-05 -1.2718098e-20)
(0.25287922 -3.6357389e-05 3.3130275e-20)
(0.23653861 -1.254413e-05 -3.5117049e-20)
(0.21539111 -1.5275129e-06 7.7071954e-20)
(0.18040205 1.2056923e-06 1.5925101e-19)
(0.294399 -4.2542646e-05 9.9859243e-19)
(0.2936244 -9.9894531e-05 7.7840536e-19)
(0.29121909 -0.0001330302 4.2162045e-19)
(0.28590172 -0.00013054514 1.1229543e-18)
(0.27719085 -9.4943787e-05 6.4398358e-19)
(0.26583134 -5.3197949e-05 3.3499717e-19)
(0.25233096 -2.2452472e-05 1.8127732e-19)
(0.23620235 -5.0202318e-06 -7.2524619e-21)
(0.21526451 1.8975035e-06 -1.2415593e-20)
(0.18043774 2.193475e-06 -1.2666112e-19)
(0.29622248 -4.0322287e-05 5.4986252e-19)
(0.29519257 -9.3155394e-05 3.6718053e-19)
(0.29213502 -0.00011739309 7.7763953e-19)
(0.28595987 -0.0001059436 7.6131831e-19)
(0.27672821 -6.9857361e-05 4.055141e-19)
(0.26527516 -3.4649433e-05 4.4657657e-19)
(0.2519011 -1.0910895e-05 3.4542535e-19)
(0.23596807 1.2316987e-06 2.2094799e-19)
(0.21521692 4.705787e-06 3.3768235e-20)
(0.18052215 2.9884398e-06 -5.9746243e-20)
(0.29792334 -3.7501361e-05 1.0118998e-18)
(0.29657067 -8.4660565e-05 1.0288074e-18)
(0.29278916 -9.9552464e-05 5.3490947e-19)
(0.28585701 -8.149663e-05 2.6183734e-19)
(0.27627357 -4.7619887e-05 7.9054404e-20)
(0.26480714 -1.8984371e-05 2.1281808e-19)
(0.25157194 -1.2542845e-06 -1.2901566e-19)
(0.23582162 6.4202564e-06 5.3059349e-20)
(0.21523437 6.9888278e-06 -8.4805273e-21)
(0.18064613 3.6202078e-06 -1.1712871e-19)
(0.29946982 -3.3841732e-05 -1.1514956e-18)
(0.29772603 -7.408049e-05 2.1418345e-18)
(0.29319628 -8.0020183e-05 -2.5944912e-19)
(0.28564803 -5.8126497e-05 -1.4855869e-18)
(0.27584861 -2.8225844e-05 -4.4087627e-19)
(0.26442121 -5.6908216e-06 -6.1183938e-19)
(0.25132937 6.8557755e-06 -3.4583926e-19)
(0.23575038 1.0704452e-05 -8.0573515e-20)
(0.21530525 8.8447187e-06 -1.4026621e-19)
(0.18080244 4.1234147e-06 -2.5070778e-20)
(0.30082185 -2.9095017e-05 -3.0656995e-19)
(0.29863175 -6.1332528e-05 1.4430733e-18)
(0.29338822 -5.9567599e-05 -4.1072166e-19)
(0.28537719 -3.6523099e-05 -9.2911535e-19)
(0.27546384 -1.1417674e-05 -2.7774801e-19)
(0.26410765 5.6160009e-06 -3.6573376e-19)
(0.25116541 1.3622918e-05 -1.8767956e-19)
(0.23574182 1.421931e-05 -9.4506754e-20)
(0.21542012 1.035461e-05 -1.1151169e-19)
(0.1809852 4.5262513e-06 1.149296e-19)
(0.30193375 -2.3108902e-05 2.8259531e-18)
(0.29927338 -4.6685049e-05 8.203455e-19)
(0.29340603 -3.9092088e-05 -3.805278e-19)
(0.28507547 -1.704813e-05 3.9794332e-19)
(0.27512089 3.0833258e-06 8.6558782e-19)
(0.26386445 1.5139872e-05 3.2983028e-19)
(0.25106783 1.9209548e-05 -4.1941081e-20)
(0.2357854 1.709454e-05 -2.037747e-19)
(0.2155712 1.1580741e-05 -1.2155756e-19)
(0.18118947 4.8477264e-06 -6.2636633e-20)
(0.30276112 -1.597711e-05 -8.3040105e-19)
(0.29965288 -3.0773528e-05 -1.610856e-18)
(0.29329056 -1.943674e-05 -1.1430621e-18)
(0.28476121 1.6725322e-07 -6.4606398e-19)
(0.27482456 1.5440302e-05 3.8032648e-19)
(0.26368339 2.3071258e-05 1.0484775e-19)
(0.25102649 2.3802279e-05 2.1244511e-19)
(0.2358724 1.943436e-05 2.8642758e-20)
(0.215752 1.2565058e-05 2.5609435e-20)
(0.18141107 5.0990429e-06 1.2061696e-19)
(0.30327136 -8.1281048e-06 8.6149261e-19)
(0.29978735 -1.4486594e-05 1.3738084e-18)
(0.29307478 -1.3060663e-06 -6.1852295e-19)
(0.28444918 1.5038837e-05 -9.6686645e-19)
(0.27457433 2.5803453e-05 -1.0331965e-18)
(0.26355615 2.9613261e-05 -1.441184e-19)
(0.25103262 2.7544453e-05 -1.117196e-19)
(0.23599543 2.1311263e-05 7.5766829e-20)
(0.21595697 1.3336067e-05 1.0447639e-19)
(0.1816463 5.2874264e-06 1.2559294e-19)
(0.30345399 -2.4263737e-07 -2.675867e-19)
(0.29970265 1.1322968e-06 1.3893653e-18)
(0.29278638 1.4661505e-05 -2.2842708e-19)
(0.28414893 2.7524854e-05 -1.1778678e-18)
(0.2743656 3.4335828e-05 -1.0272722e-18)
(0.26347496 3.492907e-05 -3.6266127e-19)
(0.25107851 3.0535368e-05 -1.3447113e-19)
(0.2361481 2.2773612e-05 -5.5200942e-20)
(0.21618129 1.3912275e-05 7.8860762e-20)
(0.18189181 5.417059e-06 5.1463458e-20)
(0.30332517 6.8806926e-06 -3.4491029e-18)
(0.29943297 1.4984255e-05 -1.7228181e-18)
(0.2924469 2.7993156e-05 -1.2893702e-18)
(0.28386232 3.7675705e-05 -2.3007031e-18)
(0.27419303 4.118611e-05 -1.1980892e-18)
(0.26343257 3.9126882e-05 -8.5867415e-19)
(0.2511573 3.2835079e-05 -1.0915006e-20)
(0.23632475 2.3848265e-05 -3.0954443e-20)
(0.21642057 1.4302141e-05 9.0696883e-20)
(0.18214445 5.4888048e-06 1.1347089e-19)
(0.30293056 1.2606766e-05 2.4892499e-18)
(0.29901534 2.6252452e-05 -2.9044767e-19)
(0.29206925 3.8507403e-05 -1.1201505e-18)
(0.28358877 4.5589199e-05 1.892923e-19)
(0.27405096 4.6451407e-05 7.4800765e-19)
(0.2634222 4.2266366e-05 -1.5593456e-19)
(0.25126272 3.4471727e-05 -9.5705948e-20)
(0.23652015 2.4543193e-05 1.8917348e-20)
(0.21667064 1.4504483e-05 -4.2847774e-20)
(0.18240105 5.5001978e-06 -2.7115382e-20)
(0.30233169 1.668619e-05 -1.5057226e-19)
(0.29848536 3.4600865e-05 1.6908897e-19)
(0.29166296 4.6231516e-05 -7.1887917e-20)
(0.28332653 5.1360455e-05 9.4933253e-19)
(0.27393383 5.0195429e-05 8.0217769e-19)
(0.26343755 4.4378846e-05 2.6147508e-19)
(0.25138894 3.5453109e-05 1.2272732e-19)
(0.23672934 2.485366e-05 6.0941245e-20)
(0.21692737 1.4511628e-05 -5.5910817e-20)
(0.18265835 5.4467306e-06 -1.9739554e-20)
(0.30159328 1.9182166e-05 7.1282262e-19)
(0.29787661 4.0084593e-05 2.8536862e-18)
(0.29123637 5.1327644e-05 1.7153589e-19)
(0.28307384 5.5103691e-05 4.6116441e-19)
(0.27383649 5.2478919e-05 -5.3133368e-19)
(0.26347281 4.5487918e-05 8.2373755e-20)
(0.25153052 3.5780113e-05 -1.2637328e-19)
(0.23694749 2.4770762e-05 -1.3617688e-19)
(0.21718658 1.4314049e-05 -3.7794804e-20)
(0.18291286 5.3235383e-06 -6.1169373e-20)
(0.3007741 2.0343966e-05 4.4192696e-19)
(0.29721995 4.3029939e-05 4.2647925e-19)
(0.29079789 5.4063624e-05 6.4981562e-20)
(0.28282962 5.6975449e-05 -7.8693413e-19)
(0.27375459 5.3383187e-05 -8.0663431e-19)
(0.2635228 4.5628321e-05 -5.9999317e-19)
(0.25168236 3.5461098e-05 -3.4095678e-19)
(0.23716991 2.4291286e-05 -1.3042015e-19)
(0.21744401 1.3906067e-05 -1.1636208e-19)
(0.18316091 5.127504e-06 -4.9305017e-20)
(0.29992225 2.0483688e-05 -2.2105078e-18)
(0.29654263 4.3898797e-05 -3.1626614e-18)
(0.29035626 5.4780381e-05 -9.5675031e-19)
(0.28259384 5.718144e-05 -2.3925558e-18)
(0.27368474 5.3023824e-05 -1.4520143e-18)
(0.26358306 4.4859889e-05 -1.2826159e-18)
(0.25183982 3.4523578e-05 -4.034203e-19)
(0.23739211 2.3426099e-05 -5.985491e-20)
(0.21769544 1.3290897e-05 -1.7506619e-21)
(0.18339881 4.8591177e-06 1.447541e-19)
(0.29907427 1.9896527e-05 2.2223024e-18)
(0.29586748 4.3178793e-05 -3.2890207e-19)
(0.28992022 5.3854129e-05 -1.0408187e-18)
(0.2823675 5.5968082e-05 6.2534811e-19)
(0.27362455 5.1552916e-05 1.2880463e-18)
(0.26364988 4.3273303e-05 6.6350681e-19)
(0.25199878 3.3020098e-05 1.1856507e-19)
(0.2376099 2.2204677e-05 -5.9407292e-20)
(0.21793688 1.2483481e-05 1.0036514e-19)
(0.18362305 4.5235026e-06 -1.5464442e-20)
(0.29825619 1.8826e-05 -1.4345693e-18)
(0.29521266 4.1315754e-05 -3.7848026e-19)
(0.28949799 5.1660496e-05 -4.1066124e-19)
(0.28215237 5.3604612e-05 4.5376098e-19)
(0.27357256 4.9151566e-05 6.0956676e-19)
(0.26372035 4.0987605e-05 4.7179134e-19)
(0.25215571 3.1027732e-05 2.8119638e-19)
(0.23781958 2.0675158e-05 2.5386516e-20)
(0.2181647 1.1510667e-05 -1.9939357e-20)
(0.18383052 4.13054e-06 -7.4275376e-20)
(0.29748548 1.7457939e-05 1.6521581e-18)
(0.2945917 3.8683373e-05 3.0516035e-18)
(0.28909672 4.8546952e-05 1.3938559e-18)
(0.28195055 5.0362546e-05 9.9869839e-19)
(0.273528 4.6016603e-05 -3.6863662e-19)
(0.26379223 3.8141595e-05 -2.6915038e-19)
(0.25230768 2.8642268e-05 -3.3163781e-19)
(0.238018 1.8900352e-05 -6.4421349e-20)
(0.2183759 1.040875e-05 -2.6048749e-20)
(0.18401872 3.693929e-06 -4.0199316e-20)
(0.29677295 1.5927741e-05 2.0869425e-18)
(0.29401399 3.5577523e-05 1.9587123e-18)
(0.28872212 4.4816324e-05 2.1907853e-18)
(0.28176414 4.6498112e-05 1.4679172e-18)
(0.27349056 4.2346249e-05 6.3507846e-19)
(0.26386389 3.4882784e-05 3.5121818e-19)
(0.25245241 2.5969832e-05 -1.4452167e-20)
(0.23820263 1.6951687e-05 6.1322953e-20)
(0.21856813 9.2196095e-06 2.2635966e-20)
(0.18418588 3.2296531e-06 7.8342814e-21)
(0.2961245 1.4331292e-05 -1.6680488e-18)
(0.29348542 3.2223378e-05 -2.2336068e-18)
(0.28837836 4.0720398e-05 2.6490723e-19)
(0.28159492 4.2240293e-05 -1.2161537e-18)
(0.27346019 3.832801e-05 -5.0435792e-19)
(0.26393414 3.1356858e-05 -5.5026498e-19)
(0.25258815 2.3118367e-05 1.8653452e-20)
(0.23837164 1.4902871e-05 -3.4001684e-20)
(0.21873983 7.9866566e-06 -7.282946e-20)
(0.18433103 2.7543279e-06 1.1085574e-19)
(0.29554246 1.2735115e-05 3.7101416e-18)
(0.29300905 2.8787244e-05 6.6261942e-19)
(0.28806808 3.6460575e-05 1.2700306e-19)
(0.28144415 3.778456e-05 3.7823011e-19)
(0.27343686 3.4130137e-05 4.6473687e-19)
(0.26400216 2.7699219e-05 3.0989155e-19)
(0.2527137 2.0190325e-05 1.2022342e-19)
(0.23852382 1.2824344e-05 4.7046873e-21)
(0.21889018 6.7512505e-06 -5.0886162e-21)
(0.18445397 2.2836782e-06 -4.9996079e-20)
(0.29502659 1.1184452e-05 1.2363299e-18)
(0.29258574 2.5388795e-05 1.2393619e-18)
(0.28779255 3.2192615e-05 1.5459087e-19)
(0.28131251 3.3291215e-05 8.6862483e-19)
(0.2734205 2.9896772e-05 6.0138532e-19)
(0.26406732 2.4029239e-05 9.4711995e-19)
(0.25282826 1.7277348e-05 3.955052e-19)
(0.23865858 1.0779153e-05 1.3165259e-19)
(0.21901907 5.5500679e-06 8.0339134e-20)
(0.18455519 1.831415e-06 -1.5476175e-20)
(0.29457489 9.7092768e-06 1.6909134e-18)
(0.29221469 2.2111803e-05 3.8654036e-18)
(0.28755186 2.8033074e-05 1.2675708e-18)
(0.2812001 2.8886781e-05 5.3617738e-19)
(0.27341088 2.5746091e-05 -3.2295913e-19)
(0.26412919 2.0447031e-05 4.0445794e-19)
(0.25293144 1.4456931e-05 1.0243984e-19)
(0.23877585 8.8203391e-06 3.1251782e-20)
(0.219127 4.4135275e-06 1.3565258e-20)
(0.18463577 1.4086395e-06 -8.1466589e-21)
(0.29418416 8.3284965e-06 4.223021e-18)
(0.29189389 1.9012655e-05 3.4035045e-18)
(0.28734516 2.4065784e-05 2.1385581e-18)
(0.28110649 2.4666884e-05 2.680033e-18)
(0.2734076 2.1770364e-05 1.8275435e-18)
(0.26418743 1.7031986e-05 8.8259835e-19)
(0.25302315 1.1790531e-05 3.306361e-19)
(0.238876 6.9893317e-06 1.4456237e-19)
(0.21921497 3.3647651e-06 -1.1460575e-20)
(0.18469725 1.0234479e-06 -7.0861469e-20)
(0.29385044 7.0530889e-06 1.8538206e-18)
(0.29162051 1.6127175e-05 1.4741077e-18)
(0.28717087 2.0348055e-05 3.1844732e-18)
(0.2810308 2.0700178e-05 2.9621262e-18)
(0.27341011 1.8037701e-05 2.3602548e-18)
(0.26424177 1.3843181e-05 1.5152952e-18)
(0.25310353 9.32339e-06 1.1477828e-18)
(0.23895978 5.3157503e-06 5.7825303e-19)
(0.21928439 2.4196201e-06 4.5303516e-19)
(0.18474149 6.8107513e-07 1.4448773e-19)
(0.29356931 5.8882524e-06 1.2350086e-18)
(0.29139119 1.3475725e-05 2.2318729e-18)
(0.28702691 1.6915972e-05 2.5998976e-18)
(0.28097179 1.7032368e-05 2.0958377e-18)
(0.27341774 1.4594538e-05 2.0758721e-18)
(0.26429201 1.0920743e-05 2.1802836e-18)
(0.25317294 7.0852981e-06 1.6259187e-18)
(0.2390282 3.8178787e-06 1.1018182e-18)
(0.21933691 1.5869213e-06 8.0940192e-19)
(0.18477052 3.8404712e-07 3.5095157e-19)
(0.29333614 4.8351154e-06 5.3383033e-20)
(0.29120221 1.1067362e-05 1.7148473e-18)
(0.28691084 1.3789239e-05 3.9254853e-18)
(0.28092801 1.3690565e-05 4.4694673e-18)
(0.27342972 1.1469092e-05 3.5299639e-18)
(0.26433801 8.2885242e-06 2.0109425e-18)
(0.2532319 5.0927087e-06 1.6369891e-18)
(0.23908247 2.5043541e-06 1.2462435e-18)
(0.21937436 8.697317e-07 9.601328e-19)
(0.18478645 1.3279225e-07 7.0926755e-19)
(0.29314626 3.8919249e-06 2.2113212e-18)
(0.29104975 8.9029166e-06 2.8402132e-18)
(0.28682003 1.0975082e-05 4.2493835e-18)
(0.28089785 1.0687109e-05 4.4758743e-18)
(0.27344524 8.6746395e-06 3.5044159e-18)
(0.26437968 5.9567653e-06 2.1101407e-18)
(0.25328104 3.3506878e-06 1.6289671e-18)
(0.23912392 1.3752945e-06 1.2275376e-18)
(0.21939862 2.7142241e-07 1.0024255e-18)
(0.18479136 -6.9992051e-08 8.0426462e-19)
(0.29299505 3.054824e-06 3.1879234e-18)
(0.29092996 6.9770611e-06 1.7196719e-18)
(0.28675176 8.4709575e-06 4.685592e-21)
(0.28087963 8.0223008e-06 1.2087602e-18)
(0.27346351 6.2118485e-06 2.9010821e-18)
(0.26441702 3.9240125e-06 2.2965905e-18)
(0.25332108 1.8553149e-06 1.712933e-18)
(0.23915391 4.2978698e-07 1.3097368e-18)
(0.21941121 -2.1333792e-07 7.3285749e-19)
(0.18478762 -2.2846574e-07 5.4892596e-19)
(0.29287808 2.3186094e-06 1.1732008e-18)
(0.29083907 5.2803372e-06 2.2956578e-18)
(0.28670332 6.2675168e-06 2.7195773e-18)
(0.28087168 5.687837e-06 1.3350255e-18)
(0.27348376 4.0724853e-06 1.63516e-18)
(0.26445004 2.1816572e-06 2.4287504e-18)
(0.25335275 6.0144055e-07 1.8288453e-18)
(0.23917355 -3.4158776e-07 1.4948664e-18)
(0.21941459 -6.0314773e-07 1.1456746e-18)
(0.18477675 -3.537554e-07 6.6821984e-19)
(0.29279113 1.6773624e-06 6.9112274e-20)
(0.29077347 3.800881e-06 2.4933575e-18)
(0.2866721 4.3512368e-06 2.6571966e-18)
(0.28087236 3.6702022e-06 1.6389811e-18)
(0.27350524 2.2438696e-06 1.4661122e-18)
(0.26447878 7.2056609e-07 1.9672263e-18)
(0.2533766 -4.2532615e-07 1.7558555e-18)
(0.23918483 -9.6190907e-07 1.420317e-18)
(0.21941034 -9.1194746e-07 1.2161566e-18)
(0.18476023 -4.5068977e-07 8.8571263e-19)
(0.29273021 1.1247457e-06 4.3599387e-19)
(0.29072973 2.5253122e-06 2.0476788e-18)
(0.28665558 2.7059589e-06 2.5574399e-18)
(0.28088013 1.9532841e-06 3.6538619e-18)
(0.27352725 7.1305819e-07 2.9079525e-18)
(0.26450318 -4.7775939e-07 1.4029063e-18)
(0.253394 -1.2526018e-06 1.4905121e-18)
(0.23918903 -1.450434e-06 1.395674e-18)
(0.21939992 -1.1463612e-06 1.2376003e-18)
(0.18473943 -5.2098614e-07 1.060085e-18)
(0.29269161 6.5427355e-07 1.1982657e-18)
(0.29070465 1.4397327e-06 2.0183442e-18)
(0.28665137 1.3154663e-06 2.5533005e-18)
(0.28089346 5.2165509e-07 3.1197339e-18)
(0.27354903 -5.4194496e-07 2.5661021e-18)
(0.2645239 -1.4442668e-06 1.6721323e-18)
(0.25340577 -1.9042458e-06 1.412404e-18)
(0.23918731 -1.8197455e-06 1.4309333e-18)
(0.21938464 -1.313063e-06 1.297396e-18)
(0.18471559 -5.6707508e-07 1.035445e-18)
(0.2926719 2.5987456e-07 2.3688829e-18)
(0.29069521 5.3126441e-07 1.4325445e-18)
(0.28665721 1.6270258e-07 7.5972767e-20)
(0.28091093 -6.4989479e-07 4.0173237e-19)
(0.2735705 -1.55436e-06 1.4015558e-18)
(0.26454118 -2.2062153e-06 2.1098904e-18)
(0.25341264 -2.3977191e-06 1.7112379e-18)
(0.23918075 -2.0822785e-06 1.4856493e-18)
(0.21936573 -1.4201269e-06 1.1009048e-18)
(0.18468979 -5.9211524e-07 9.371471e-19)
(0.29266788 -6.4930975e-08 3.2983089e-18)
(0.29069861 -2.1586728e-07 2.7690658e-18)
(0.28667108 -7.7733341e-07 3.257928e-18)
(0.28093165 -1.5939381e-06 1.029675e-18)
(0.27359126 -2.3525178e-06 3.3160648e-19)
(0.26455525 -2.7844907e-06 1.735242e-18)
(0.25341533 -2.7503001e-06 1.7682308e-18)
(0.23917035 -2.2514991e-06 1.569424e-18)
(0.21934425 -1.4761327e-06 1.4722988e-18)
(0.18466299 -5.9943005e-07 1.0986638e-18)
(0.29267666 -3.2817381e-07 6.5747486e-19)
(0.29071241 -8.208844e-07 2.4695944e-18)
(0.28669133 -1.531074e-06 2.6896154e-18)
(0.28095459 -2.3358698e-06 1.9498636e-18)
(0.27361098 -2.9585601e-06 1.56066e-18)
(0.26456636 -3.199754e-06 1.4405638e-18)
(0.2534145 -2.9800579e-06 1.6778e-18)
(0.23915703 -2.3410175e-06 1.5120762e-18)
(0.21932114 -1.4894462e-06 1.4301976e-18)
(0.18463595 -5.92194e-07 1.1266916e-18)
(0.29269576 -5.3732249e-07 -6.7051406e-19)
(0.29073448 -1.3003519e-06 1.4259997e-18)
(0.2867164 -2.1188035e-06 1.6920203e-18)
(0.28097888 -2.8973737e-06 1.8189456e-18)
(0.27362943 -3.3946931e-06 1.9529757e-18)
(0.26457479 -3.4730879e-06 2.206885e-18)
(0.25341079 -3.104895e-06 1.9547845e-18)
(0.23914158 -2.363954e-06 1.8161953e-18)
(0.21929718 -1.4679981e-06 1.5234719e-18)
(0.18460932 -5.733942e-07 1.1735495e-18)
(0.29272293 -6.9834857e-07 1.5995475e-18)
(0.29076289 -1.6681237e-06 1.7081288e-18)
(0.28674492 -2.5590863e-06 1.506703e-18)
(0.28100376 -3.2997791e-06 1.4442624e-18)
(0.27364643 -3.6828928e-06 7.6426897e-19)
(0.26458083 -3.6249193e-06 1.7485527e-18)
(0.25340478 -3.1417804e-06 1.9208575e-18)
(0.2391247 -2.3324925e-06 1.8061281e-18)
(0.21927305 -1.4190031e-06 1.6072311e-18)
(0.18458358 -5.456896e-07 1.2813863e-18)
(0.2927562 -8.1694432e-07 2.9093561e-18)
(0.29079596 -1.9373943e-06 2.0993354e-18)
(0.2867757 -2.8699196e-06 3.197208e-18)
(0.28102862 -3.563835e-06 2.8559754e-18)
(0.27366187 -3.8442946e-06 2.2795648e-18)
(0.26458475 -3.6745885e-06 8.7670014e-19)
(0.253397 -3.1065148e-06 1.2491514e-18)
(0.23910702 -2.257791e-06 1.3531796e-18)
(0.21924929 -1.3489803e-06 1.2068509e-18)
(0.18455913 -5.1147214e-07 1.164991e-18)
(0.29279382 -8.9844791e-07 1.7971763e-18)
(0.29083218 -2.1206438e-06 1.7448135e-18)
(0.28680771 -3.0684333e-06 3.8870727e-18)
(0.28105293 -3.7092082e-06 2.7588835e-18)
(0.27367569 -3.8987014e-06 1.9437831e-18)
(0.26458684 -3.6399365e-06 1.3534113e-18)
(0.25338791 -3.0134094e-06 1.1881663e-18)
(0.23908903 -2.1497487e-06 1.3877555e-18)
(0.21922632 -1.2635812e-06 1.4092978e-18)
(0.18453623 -4.727686e-07 1.1789911e-18)
(0.29283429 -9.4787814e-07 -8.6772082e-20)
(0.2908703 -2.229625e-06 1.0022008e-18)
(0.28684008 -3.1707489e-06 -1.5849865e-19)
(0.28107629 -3.7542763e-06 1.2985544e-18)
(0.27368789 -3.8643935e-06 1.6404267e-18)
(0.26458737 -3.5371728e-06 1.7819996e-18)
(0.25337794 -2.8752255e-06 1.641673e-18)
(0.23907116 -2.0170188e-06 1.6318207e-18)
(0.21920447 -1.1676635e-06 1.4961701e-18)
(0.18451508 -4.3131963e-07 1.2404399e-18)
(0.2928763 -9.6989916e-07 1.010899e-19)
(0.2909092 -2.2752758e-06 1.4877984e-18)
(0.2868721 -3.1918188e-06 1.3370955e-18)
(0.28109838 -3.7159345e-06 1.1823207e-18)
(0.2736985 -3.757947e-06 1.719737e-18)
(0.26458661 -3.3807367e-06 2.3624151e-18)
(0.25336744 -2.703092e-06 2.1020954e-18)
(0.23905377 -1.8669654e-06 1.8127155e-18)
(0.21918399 -1.0652508e-06 1.5461629e-18)
(0.1844958 -3.8854559e-07 1.2678076e-18)
(0.29291876 -9.6883413e-07 1.4215574e-18)
(0.29094798 -2.2677139e-06 2.4688055e-18)
(0.28690318 -3.1453937e-06 1.7936931e-18)
(0.28111899 -3.6095657e-06 1.5421148e-18)
(0.27370757 -3.594238e-06 1.2871177e-18)
(0.2645848 -3.1833456e-06 2.3787118e-18)
(0.25335673 -2.5065926e-06 2.1738195e-18)
(0.23903712 -1.7057662e-06 1.8287026e-18)
(0.21916506 -9.5961641e-07 1.6497722e-18)
(0.18447843 -3.4558942e-07 1.2778184e-18)
(0.29296073 -9.4867177e-07 2.4271225e-18)
(0.29098589 -2.216252e-06 2.6754941e-18)
(0.28693286 -3.0440447e-06 3.5707679e-18)
(0.28113794 -3.4490871e-06 2.5519554e-18)
(0.2737152 -3.386531e-06 2.9410685e-18)
(0.26458216 -2.9561354e-06 1.4419963e-18)
(0.25334606 -2.2939353e-06 1.6279906e-18)
(0.23902142 -1.5385675e-06 1.5899301e-18)
(0.21914778 -8.5338533e-07 1.4424455e-18)
(0.18446299 -3.0333979e-07 1.2614572e-18)
(0.29300147 -9.1308699e-07 2.4278068e-18)
(0.29102231 -2.1294432e-06 2.7604912e-18)
(0.28696077 -2.8992364e-06 5.1887021e-18)
(0.28115513 -3.2470617e-06 3.3811508e-18)
(0.27372147 -3.1466421e-06 2.7696354e-18)
(0.26457889 -2.7088693e-06 2.0876889e-18)
(0.25333564 -2.0721834e-06 1.7189407e-18)
(0.23900682 -1.3696989e-06 1.6114188e-18)
(0.21913221 -7.4869802e-07 1.6886397e-18)
(0.18444944 -2.6249908e-07 1.3510249e-18)
(0.29304037 -8.6543286e-07 2.4276059e-18)
(0.29105678 -2.015087e-06 1.8852028e-18)
(0.28698668 -2.72136e-06 1.4713714e-19)
(0.28117054 -3.0147689e-06 2.4450222e-18)
(0.2737265 -2.8850523e-06 2.2901215e-18)
(0.26457516 -2.4500837e-06 1.9143228e-18)
(0.25332565 -1.8474129e-06 1.8632933e-18)
(0.23899343 -1.2028146e-06 1.7441103e-18)
(0.21911838 -6.4730799e-07 1.6000412e-18)
(0.18443774 -2.2360161e-07 1.2698057e-18)
(0.29307698 -8.0876373e-07 2.341244e-18)
(0.29108894 -1.8802692e-06 1.6056663e-18)
(0.28701039 -2.5197956e-06 3.6547789e-19)
(0.28118415 -2.7622941e-06 1.4552132e-18)
(0.2737304 -2.6110274e-06 1.8266111e-18)
(0.26457114 -2.1872373e-06 1.5780084e-18)
(0.25331621 -1.6248747e-06 1.6888032e-18)
(0.23898131 -1.0410471e-06 1.6200412e-18)
(0.21910624 -5.5071619e-07 1.4249966e-18)
(0.18442778 -1.8708511e-07 1.2453777e-18)
(0.29311097 -7.4579149e-07 1.220119e-18)
(0.29111855 -1.7312971e-06 1.6384382e-18)
(0.28703183 -2.3028436e-06 1.2571301e-18)
(0.28119601 -2.4984657e-06 1.0904611e-18)
(0.2737333 -2.332563e-06 7.9463749e-19)
(0.26456696 -1.9266599e-06 1.6155694e-18)
(0.25330742 -1.4089479e-06 1.6857176e-18)
(0.23897048 -8.8696484e-07 1.5851874e-18)
(0.21909575 -4.6013263e-07 1.4215317e-18)
(0.18441947 -1.5326802e-07 1.2676658e-18)
(0.29314211 -6.7889722e-07 1.0686989e-18)
(0.29114546 -1.5736997e-06 2.2597419e-18)
(0.28705095 -2.0777132e-06 3.9162576e-18)
(0.28120619 -2.2308369e-06 2.1624796e-18)
(0.27373531 -2.0563693e-06 1.9183747e-18)
(0.26456274 -1.6735446e-06 1.2697509e-18)
(0.25329934 -1.2031317e-06 1.6125685e-18)
(0.23896093 -7.4256637e-07 1.6060985e-18)
(0.21908683 -3.7648971e-07 1.3868308e-18)
(0.18441267 -1.2238955e-07 1.2396511e-18)
(0.29317027 -6.1011257e-07 1.5168251e-18)
(0.2911696 -1.41219e-06 3.0715191e-18)
(0.28706778 -1.8504735e-06 4.8985309e-18)
(0.28121478 -1.9656378e-06 3.1988183e-18)
(0.27373656 -1.7878247e-06 2.4899839e-18)
(0.26455857 -1.4318937e-06 2.5655624e-18)
(0.25329201 -1.009985e-06 1.842411e-18)
(0.23895262 -6.0921412e-07 1.7819467e-18)
(0.21907937 -3.0037596e-07 1.688192e-18)
(0.18440725 -9.4590622e-08 1.3370175e-18)
(0.29319542 -5.4112614e-07 1.5842113e-18)
(0.29119098 -1.2506725e-06 2.1204394e-18)
(0.28708238 -1.6260664e-06 -4.5280436e-19)
(0.28122189 -1.7078004e-06 1.6966306e-18)
(0.27373716 -1.5310087e-06 2.6403793e-18)
(0.26455454 -1.2045533e-06 2.2371172e-18)
(0.25328545 -8.3114747e-07 1.9240976e-18)
(0.2389455 -4.8763335e-07 1.7573975e-18)
(0.21907325 -2.3200672e-07 1.6929806e-18)
(0.18440306 -6.989511e-08 1.4008706e-18)
(0.29321757 -4.7332946e-07 9.8773858e-19)
(0.29120965 -1.0923312e-06 6.8437546e-19)
(0.28709486 -1.4084262e-06 -7.3041292e-20)
(0.28122764 -1.4611113e-06 1.0569659e-18)
(0.27373722 -1.2888827e-06 1.588222e-18)
(0.26455069 -9.9340305e-07 1.7270896e-18)
(0.25327966 -6.6751303e-07 1.8241382e-18)
(0.23893951 -3.7804262e-07 1.7529502e-18)
(0.21906837 -1.7130925e-07 1.7399007e-18)
(0.18439997 -4.8251789e-08 1.3993821e-18)
(0.29323681 -4.0783328e-07 8.7239295e-19)
(0.29122571 -9.3969055e-07 4.1000879e-19)
(0.28710535 -1.2005919e-06 8.0516731e-19)
(0.28123217 -1.2283736e-06 1.3482884e-18)
(0.27373684 -1.0634822e-06 1.9268655e-19)
(0.26454709 -7.9955042e-07 1.4519603e-18)
(0.25327461 -5.193989e-07 1.7245494e-18)
(0.23893456 -2.8027601e-07 1.8496636e-18)
(0.2190646 -1.1797328e-07 1.6157686e-18)
(0.18439785 -2.9513819e-08 1.3022642e-18)
(0.29325325 -3.4552717e-07 1.4682142e-19)
(0.29123929 -7.9474565e-07 2.3065976e-18)
(0.28711397 -1.0048972e-06 4.1442851e-18)
(0.28123559 -1.0116439e-06 2.4281349e-18)
(0.27373609 -8.5618106e-07 2.0362577e-18)
(0.26454375 -6.2360125e-07 1.0668962e-18)
(0.25327029 -3.867959e-07 1.598665e-18)
(0.23893057 -1.9398678e-07 1.5205258e-18)
(0.21906182 -7.1604273e-08 1.3757185e-18)
(0.18439656 -1.3499745e-08 1.2676588e-18)