/*--------------------------------*- C++ -*----------------------------------*\
| =========                 |                                                 |
| \\      /  F ield         | OpenFOAM: The Open Source CFD Toolbox           |
|  \\    /   O peration     | Version:  2506                                  |
|   \\  /    A nd           | Website:  www.openfoam.com                      |
|    \\/     M anipulation  |                                                 |
\*---------------------------------------------------------------------------*/
FoamFile
{
    version     2.0;
    format      ascii;
    arch        "LSB;label=32;scalar=64";
    class       volScalarField;
    location    "6000/rock";
    object      T;
}
// * * * * * * * * * * * * * * * * * * * * * * * * * * * * * * * * * * * * * //

dimensions      [0 0 0 1 0 0 0];

internalField   nonuniform List<scalar> 
16000
(
317.69725
306.87925
301.02388
297.37085
294.88612
293.09518
291.74926
290.70524
289.87498
289.20128
288.64545
288.18041
287.78668
287.4499
287.15927
286.90653
286.68523
286.49031
286.31773
286.16421
286.0271
285.9042
285.79369
285.69406
285.60402
285.52249
285.44853
285.38136
285.32028
285.26468
285.21403
285.16785
285.12571
285.08721
285.05195
285.01956
284.98961
284.96161
284.93488
284.90834
320.37442
309.58962
303.33619
299.31828
296.54481
294.52877
293.0055
291.81955
290.87391
290.10505
289.46972
288.93752
288.48648
288.10036
287.76693
287.4768
287.22265
286.99869
286.80033
286.62383
286.46614
286.32477
286.19763
286.08297
285.97935
285.8855
285.80036
285.72303
285.65269
285.58867
285.53035
285.47718
285.42867
285.38436
285.34381
285.30657
285.2722
285.24016
285.20979
285.18019
321.90152
311.58226
305.24018
301.02133
298.04783
295.85776
294.18835
292.88053
291.83296
290.97827
290.27012
289.67565
289.17095
288.73829
288.36422
288.03839
287.75272
287.50082
287.27756
287.07879
286.90113
286.74178
286.59842
286.4691
286.35218
286.24627
286.15018
286.06287
285.98346
285.91118
285.84533
285.7853
285.73054
285.68055
285.63482
285.59291
285.5543
285.51848
285.48485
285.4527
322.87744
313.07746
306.80289
302.49799
299.39783
297.08011
295.29458
293.88493
292.7492
291.81844
291.04452
290.39299
289.83857
289.36238
288.95001
288.59033
288.27463
287.99597
287.74878
287.52854
287.33156
287.15479
286.99567
286.85208
286.72221
286.60453
286.49772
286.40067
286.31237
286.23199
286.15877
286.09203
286.03116
285.97562
285.92488
285.87843
285.83578
285.79642
285.75979
285.72536
323.5611
314.23312
308.09417
303.77619
300.60495
298.19863
296.32404
294.83146
293.621
292.62387
291.79134
291.08813
290.48809
289.97153
289.52335
289.1318
288.78764
288.4835
288.21342
287.97258
287.757
287.5634
287.38904
287.2316
287.08914
286.96
286.84276
286.73619
286.63922
286.55093
286.4705
286.3972
286.33038
286.26944
286.21382
286.163
286.11648
286.07376
286.03435
285.9978
324.07405
315.15353
309.17358
304.88571
301.6831
299.21933
297.27888
295.72043
294.44783
293.39369
292.50961
291.76009
291.11858
290.56489
290.08346
289.66209
289.29112
288.96284
288.67099
288.41045
288.17704
287.96725
287.77818
287.60735
287.4527
287.31244
287.18505
287.06922
286.96381
286.86781
286.78036
286.70067
286.62804
286.56185
286.5015
286.44647
286.39624
286.35032
286.30828
286.26971
324.47857
315.90661
310.08793
305.85411
302.6473
300.14997
298.16286
296.55344
295.23011
294.12772
293.19883
292.40824
291.72936
291.14181
290.62972
290.18061
289.78454
289.43351
289.12103
288.84176
288.5913
288.366
288.16278
287.97906
287.81262
287.6616
287.52438
287.39957
287.28594
287.18246
287.08817
287.00226
286.924
286.8527
286.78778
286.72868
286.67488
286.62591
286.58135
286.54085
324.80938
316.53714
310.87281
306.70516
303.51211
300.99901
298.98068
297.33294
295.96899
294.82634
293.85896
293.03232
292.32006
291.70183
291.16167
290.68692
290.26746
289.8951
289.56316
289.26613
288.99946
288.75935
288.54258
288.34646
288.16868
288.00728
287.86055
287.72703
287.60545
287.49469
287.39378
287.30183
287.21809
287.14186
287.07251
287.00947
286.95223
286.90033
286.85335
286.81097
325.08731
317.07532
311.55501
307.4586
304.29081
301.77491
299.7375
298.06196
296.66616
295.49042
294.49036
293.63234
292.89052
292.2447
291.67899
291.18068
290.73954
290.34728
289.99707
289.68328
289.40124
289.14702
288.91731
288.70932
288.52065
288.34925
288.19335
288.05143
287.92216
287.80436
287.69702
287.59923
287.51018
287.42916
287.35553
287.28869
287.22814
287.17341
287.12409
287.07987
325.32573
317.54211
312.15472
308.13056
304.99508
302.48562
300.43856
298.74383
297.32365
296.12113
295.09364
294.2086
293.44078
292.77033
292.18151
291.66166
291.20054
290.78978
290.42248
290.09294
289.79638
289.52878
289.28676
289.06743
288.86833
288.68733
288.52262
288.3726
288.2359
288.11131
287.99775
287.8943
287.80013
287.71448
287.6367
287.56619
287.50243
287.44497
287.39339
287.34738
325.53365
317.95246
312.68726
308.73412
305.63499
303.13847
301.08893
299.38197
297.94371
296.7199
295.66966
294.76156
293.97106
293.27877
292.66917
292.12974
291.65028
291.22241
290.83921
290.49492
290.18468
289.90444
289.65073
289.4206
289.21154
289.02136
288.84818
288.69038
288.54653
288.41538
288.29583
288.18692
288.08778
287.99766
287.91587
287.84182
287.77497
287.71486
287.66108
287.61331
325.71741
318.3173
313.16442
309.27986
306.21913
303.73999
301.69339
299.97976
298.52866
297.28829
296.21945
295.29186
294.48175
293.77021
293.14203
292.58489
292.08868
291.64505
291.2471
290.88904
290.56598
290.27382
290.00905
289.76868
289.55012
289.35117
289.16989
289.00463
288.8539
288.71644
288.59112
288.47694
288.37302
288.27857
288.19292
288.11544
288.0456
287.98292
287.927
287.87752
325.88164
318.64482
313.59536
309.77634
306.75478
304.29597
302.25637
300.54046
299.08086
297.82795
296.74414
295.80025
294.97331
294.24492
293.60024
293.02716
292.51571
292.05764
291.64606
291.27519
290.94015
290.63679
290.36158
290.1115
289.88393
289.67662
289.48761
289.3152
289.15789
289.01437
288.88349
288.76424
288.6557
288.5571
288.46771
288.38692
288.31418
288.24902
288.19102
288.13985
326.02978
318.94128
313.98729
310.23058
307.24809
304.81149
302.78185
301.06714
299.60258
298.34055
297.24491
296.28757
295.4463
294.70328
294.04401
293.45666
292.93143
292.46016
292.03603
291.65329
291.30708
290.99323
290.70821
290.44896
290.21285
289.9976
289.80122
289.62198
289.45836
289.30904
289.17282
289.04869
288.93572
288.8331
288.74012
288.65613
288.58059
288.51301
288.45298
288.40016
326.1645
319.21157
314.34598
310.6483
307.70426
305.29099
303.27347
301.56263
300.09601
298.82773
297.72299
296.7547
295.90137
295.14571
294.47363
293.87357
293.33591
292.85263
292.417
292.02331
291.66671
291.34307
291.04884
290.78096
290.53677
290.31399
290.1106
289.92486
289.75522
289.60033
289.45901
289.3302
289.21296
289.10648
289.01003
288.92296
288.84471
288.77479
288.71278
288.65833
326.28786
319.45954
314.67605
311.03426
308.1277
305.73831
303.73443
302.02957
300.56323
299.2911
298.1796
297.20254
296.33916
295.57269
294.88944
294.27811
293.7293
293.23515
292.789
292.38522
292.01901
291.68625
291.38341
291.10741
290.85561
290.6257
290.41567
290.22374
290.04836
289.88816
289.74195
289.60865
289.48732
289.37713
289.27733
289.18728
289.10641
289.03422
288.97029
288.91425
326.40151
319.68831
314.98131
311.39238
308.52216
306.15682
304.16764
302.47034
301.00616
299.7322
298.61592
297.63202
296.76038
295.98474
295.29179
294.67054
294.11178
293.60781
293.15208
292.73905
292.36397
292.02274
291.71186
291.42826
291.1693
290.93267
290.71633
290.51853
290.33768
290.17243
290.02154
289.88395
289.75869
289.64493
289.54192
289.449
289.3656
289.29121
289.2254
289.16779
326.50679
319.90039
315.26486
311.72597
308.89085
306.54944
304.57564
302.88711
301.42662
300.15247
299.03312
298.04404
297.16572
296.38239
295.6811
295.05115
294.48355
293.97075
293.50634
293.08485
292.7016
292.35253
292.03416
291.74346
291.47778
291.23481
291.01253
290.80916
290.62313
290.45305
290.29771
290.15601
290.02699
289.90981
289.80371
289.70803
289.62218
289.54565
289.47801
289.41887
326.60476
320.09786
315.52932
312.03783
309.2365
306.91873
304.96072
303.28185
301.82625
300.55329
299.43232
298.4395
297.5559
296.76618
296.05778
295.42025
294.84484
294.32414
293.85189
293.42269
293.03193
292.67563
292.35031
292.05298
291.78101
291.53209
291.3042
291.09557
290.90461
290.72996
290.57036
290.42474
290.29213
290.17167
290.06261
289.96426
289.87604
289.79745
289.72802
289.66739
326.69633
320.28245
315.77684
312.3303
309.56147
307.26691
305.32489
303.65634
302.20658
300.93594
299.81456
298.81925
297.93159
297.13667
296.42226
295.77818
295.1959
294.66817
294.18884
293.75265
293.35503
292.99206
292.66032
292.35682
292.07896
291.82446
291.5913
291.37769
291.18208
291.00308
290.83945
290.69009
290.55405
290.43045
290.31853
290.21762
290.12712
290.04652
289.97536
289.91325
326.78222
320.4556
316.00928
312.60541
309.86781
307.59593
305.66996
304.01218
302.569
301.30162
300.18086
299.18412
298.29347
297.4944
296.77497
296.12528
295.53699
295.00303
294.51737
294.07484
293.67096
293.30187
292.96419
292.65497
292.37163
292.1119
291.87378
291.6555
291.45549
291.27237
291.1049
290.95199
290.81266
290.68605
290.5714
290.46803
290.37533
290.29279
290.21994
290.15639
326.86307
320.61853
316.22819
312.86489
310.15728
307.90752
305.99752
304.35082
302.9148
301.65141
300.53214
299.53491
298.64221
297.8399
297.11635
296.4619
295.86839
295.32893
294.83762
294.38937
293.97981
293.60511
293.26196
292.94745
292.65901
292.3944
292.15163
291.92895
291.72479
291.53777
291.36666
291.21036
291.06791
290.93844
290.82117
290.71543
290.62061
290.53618
290.46169
290.39672
326.93939
320.77228
316.43492
313.11023
310.43143
308.20318
306.309
304.67357
303.24514
301.98636
300.8693
299.87235
298.97842
298.1737
297.44683
296.78837
296.19038
295.6461
295.14976
294.69639
294.28167
293.90186
293.55369
293.23428
292.94111
292.67195
292.42483
292.19802
291.98995
291.79924
291.62469
291.46518
291.31975
291.18754
291.06776
290.95974
290.86288
290.77663
290.70054
290.63419
327.01162
320.91773
316.63063
313.34274
310.69161
308.48425
306.60567
304.98161
303.56108
302.30741
301.19316
300.19717
299.30272
298.4963
297.76682
297.10505
296.50323
295.95476
295.45398
294.99602
294.57665
294.19219
293.83941
293.51549
293.21794
292.94455
292.69338
292.46268
292.25094
292.05676
291.87895
291.71639
291.56813
291.4333
291.31113
291.20093
291.10209
291.01408
290.93643
290.86873
327.08015
321.05567
316.81631
313.56355
310.93901
308.75192
306.88868
305.27599
303.86361
302.61542
301.50449
300.51004
299.61568
298.80819
298.07674
297.41229
296.80724
296.25515
295.75046
295.28842
294.86486
294.47618
294.1192
293.79114
293.48954
293.21222
292.95726
292.72294
292.50775
292.3103
292.1294
291.96396
291.81301
291.67569
291.55122
291.43893
291.33819
291.24848
291.16932
291.10029
327.1453
321.18675
316.99284
313.77366
311.17468
309.00724
307.15904
305.55768
304.1536
302.91121
301.804
300.81157
299.91784
299.10985
298.37699
297.71041
297.10268
296.54749
296.0394
295.57373
295.14643
294.75393
294.39312
294.06126
293.75593
293.47498
293.2165
292.9788
292.76036
292.55984
292.37603
292.20786
292.05436
291.91466
291.788
291.6737
291.57114
291.47978
291.39914
291.32882
327.20735
321.31155
317.16098
313.97393
311.39954
309.25114
307.41767
305.82756
304.43187
303.19551
302.09236
301.10237
300.20973
299.40173
298.66795
297.99975
297.38983
296.83201
296.32097
295.85212
295.42148
295.02554
294.66126
294.32593
294.01716
293.73285
293.4711
293.23024
293.00878
292.80537
292.61882
292.44807
292.29214
292.15019
292.02144
291.90521
291.80089
291.70794
291.62587
291.55428
327.26656
321.43059
317.32142
314.16514
311.61443
309.48448
307.6654
306.08642
304.69917
303.46901
302.3702
301.38299
300.49183
299.68424
298.95
298.28063
297.66897
297.10896
296.59538
296.12375
295.69013
295.29112
294.92369
294.58519
294.27328
293.98586
293.72109
293.47729
293.253
293.04688
292.85776
292.68456
292.52634
292.38224
292.25149
292.13342
292.02741
291.93292
291.84947
291.77663
327.32314
321.54432
317.47474
314.34799
311.82007
309.708
307.90298
306.33497
304.95616
303.73234
302.63809
301.65394
300.76461
299.95781
299.2235
298.55335
297.94035
297.37854
296.86282
296.38876
295.95253
295.55077
295.1805
294.83913
294.52434
294.23407
293.96649
293.71996
293.49303
293.28437
293.09282
292.91733
292.75693
292.61079
292.47815
292.35831
292.25068
292.1547
292.0699
291.99584
327.37728
321.65314
317.62148
314.52308
312.01713
309.92238
308.13107
306.57388
305.20348
303.98607
302.89655
301.91572
301.0285
300.22281
299.48878
298.81821
298.20423
297.64099
297.12347
296.64733
296.20881
295.8046
295.43179
295.08781
294.77039
294.4775
294.20733
293.95828
293.72888
293.51785
293.32403
293.14636
292.98391
292.83584
292.70138
292.57986
292.47066
292.37325
292.28714
292.21189
327.42917
321.75739
317.76212
314.69096
312.2062
310.12824
308.3503
306.80373
305.4417
304.23075
303.1461
302.16877
301.28392
300.47963
299.74618
299.07552
298.46088
297.89652
297.37752
296.89962
296.4591
296.05273
295.67764
295.33131
295.0115
294.71621
294.44366
294.19226
293.96058
293.74733
293.55138
293.37167
293.20728
293.05736
292.92118
292.79804
292.68734
292.58854
292.50116
292.42476
327.47896
321.85741
317.89706
314.85212
312.38782
310.32612
308.56121
307.02507
305.67133
304.46687
303.38718
302.41353
301.53125
300.7286
299.996
299.32553
298.71053
298.14535
297.62516
297.14577
296.70353
296.29526
295.91815
295.56971
295.24773
294.95025
294.67551
294.42194
294.18814
293.97283
293.77487
293.59324
293.42701
293.27536
293.13753
293.01285
292.90071
292.80058
292.71196
292.63442
327.52678
321.95347
318.0267
315.00701
312.56246
310.51653
308.76432
307.23841
305.89286
304.69489
303.62024
302.65039
301.77086
300.97006
300.23854
299.56851
298.95341
298.38768
297.86657
297.38595
296.94225
296.53233
296.15342
295.80309
295.47915
295.17967
294.90293
294.64736
294.41159
294.19435
293.99452
293.81109
293.64313
293.48983
293.35043
293.22428
293.11076
293.00933
292.91951
292.84087
327.57276
322.04584
318.15138
315.15602
312.73056
310.69992
308.96007
307.44419
306.10673
304.91523
303.84567
302.87973
302.00309
301.20432
300.4741
299.80473
299.18976
298.62371
298.10192
297.62031
297.17538
296.76403
296.38355
296.03153
295.70583
295.40454
295.12595
294.86855
294.63095
294.41192
294.21035
294.02522
293.85563
293.70077
293.55989
293.43232
293.31747
293.2148
293.12381
293.04409
327.61702
322.13475
318.27141
315.29953
312.89252
310.8767
309.14891
307.64284
306.31336
305.12829
304.06383
303.10188
302.22826
301.43167
300.70292
300.03441
299.41978
298.85365
298.33138
297.84901
297.40306
296.99049
296.60864
296.25512
295.92783
295.6249
295.34465
295.08555
294.84627
294.62558
294.42237
294.23565
294.06453
293.90819
293.76589
293.63698
293.52085
293.41698
293.32486
293.24408
327.65966
322.2204
318.38708
315.43786
313.04869
311.04727
309.3312
307.83474
306.51311
305.33442
304.27509
303.31718
302.44668
301.65241
300.92528
300.25781
299.64371
299.07766
298.55513
298.07219
297.62541
297.21182
296.82877
296.47394
296.14524
295.84083
295.55905
295.29841
295.05758
294.83534
294.63061
294.4424
294.26983
294.11209
293.96845
293.83826
293.72091
293.61587
293.52266
293.44084
327.70079
322.303
318.49863
315.5713
313.19942
311.21196
309.50732
308.02025
306.70634
305.53396
304.47975
303.52593
302.65863
301.86678
301.14142
300.47513
299.86172
299.29595
298.77333
298.28999
297.84257
297.42813
297.04407
296.68808
296.35813
296.05239
295.76923
295.50717
295.26491
295.04124
294.83509
294.64549
294.47156
294.3125
294.16758
294.03616
293.91763
293.81148
293.7172
293.63437
327.74047
322.38271
318.6063
315.70014
313.345
311.37109
309.67757
308.19969
306.89337
305.72724
304.67813
303.72842
302.86438
302.07505
301.35156
300.68659
300.07402
299.50867
298.98612
298.50256
298.05467
297.63954
297.25461
296.89763
296.56657
296.25964
295.97523
295.71188
295.4683
295.24331
295.03585
294.84495
294.66973
294.50942
294.36329
294.2307
294.11105
294.00381
293.9085
293.82468
327.7788
322.4597
318.71031
315.82463
313.4857
311.52495
309.84227
308.37337
307.0745
305.91454
304.8705
303.92491
303.06418
302.27745
301.55593
300.8924
300.28079
299.71601
299.19368
298.71004
298.26181
297.84614
297.4605
297.10266
296.77064
296.46265
296.17711
295.91259
295.66781
295.4416
295.23291
295.04079
294.86437
294.70288
294.5556
294.42188
294.30115
294.19287
294.09656
294.01178
327.81585
322.53411
318.81085
315.945
313.62178
311.67382
310.00169
308.54157
307.25001
306.09613
305.05712
304.11566
303.25827
302.47419
301.75474
301.09274
300.48222
299.91812
299.39614
298.91255
298.46414
298.04806
297.66184
297.30328
296.97041
296.66148
296.37493
296.10935
295.86346
295.63613
295.4263
295.23304
295.0555
294.89289
294.74452
294.60974
294.48797
294.37868
294.28139
294.19568
327.85168
322.60607
318.90811
316.06145
313.75348
311.81794
310.15609
308.70454
307.42015
306.27226
305.23824
304.30091
303.44688
302.66551
301.94818
301.2878
300.67846
300.11516
299.59365
299.11024
298.66175
298.2454
297.85872
297.49955
297.16596
296.85621
296.56875
296.30221
296.05532
295.82695
295.61607
295.42175
295.24314
295.07949
294.93007
294.79427
294.67151
294.56125
294.46302
294.37638
327.88635
322.67573
319.00224
316.17419
313.88101
311.95755
310.30571
308.86253
307.58517
306.44318
305.4141
304.48087
303.63021
302.85158
302.13644
301.47776
300.86969
300.30729
299.78634
299.30322
298.85477
298.43826
298.05124
297.69157
297.35736
297.04689
296.75864
296.49123
296.24342
296.0141
295.80224
295.60693
295.42734
295.26268
295.11229
294.97552
294.85179
294.7406
294.64145
294.55392
327.91993
322.74317
319.09341
316.28339
314.00457
312.09285
310.45076
309.01576
307.7453
306.60911
305.5849
304.65575
303.80847
303.03261
302.3197
301.66278
301.05606
300.49464
299.97435
299.49162
299.04332
298.62674
298.23948
297.87943
297.5447
297.2336
296.94464
296.67646
296.42782
296.19762
295.98487
295.78864
295.60811
295.44252
295.29119
295.15349
295.02885
294.91674
294.81671
294.7283
327.95246
322.80852
319.18175
316.38923
314.12435
312.22404
310.59146
309.16445
307.90073
306.77025
305.75086
304.82575
303.98185
303.20878
302.49814
301.84303
301.23772
300.67735
300.15782
299.67555
299.22749
298.81094
298.42354
298.06319
297.72804
297.41641
297.12683
296.85795
296.60856
296.37757
296.16398
295.96689
295.78549
295.61901
295.4668
295.32821
295.20269
295.08971
294.98881
294.89955
327.984
322.87188
319.26739
316.49185
314.24051
312.35131
310.72799
309.30878
308.05167
306.92679
305.91216
304.99106
304.15053
303.38025
302.67191
302.01866
301.41481
300.85557
300.33685
299.85514
299.4074
298.99097
298.60351
298.24295
297.90746
297.59538
297.30526
297.03576
296.7857
296.55397
296.33962
296.14173
295.95951
295.79221
295.63915
295.49972
295.37335
295.25953
295.15779
295.06769
328.01459
322.93332
319.35046
316.59141
314.35322
312.47482
310.86053
309.44894
308.1983
307.07893
306.06897
305.15185
304.31466
303.54719
302.84117
302.18981
301.58748
301.02942
300.51158
300.0305
299.58315
299.16692
298.77948
298.41879
298.08303
297.77059
297.48
297.20996
296.95928
296.72689
296.51183
296.3132
296.13022
295.96213
295.80827
295.66803
295.54085
295.42622
295.32366
295.23275
328.04427
322.99294
319.43108
316.68802
314.46263
312.59474
310.98925
309.5851
308.34079
307.22682
306.22148
305.30828
304.47442
303.70975
303.00606
302.35663
301.75585
301.19902
300.68212
300.20173
299.75485
299.33887
298.95152
298.59078
298.25483
297.94209
297.6511
297.38058
297.12936
296.89637
296.68066
296.48135
296.29764
296.12881
295.9742
295.83319
295.70523
295.58981
295.48646
295.39475
328.07309
323.05081
319.50933
316.78183
314.56887
312.71122
311.1143
309.71741
308.4793
307.37064
306.36983
305.46051
304.62996
303.86808
303.16673
302.51924
301.92005
301.36449
300.84859
300.36893
299.92257
299.50693
299.11974
298.759
298.42293
298.10995
297.81863
297.5477
297.29599
297.06245
296.84614
296.6462
296.46182
296.29229
296.13696
295.99522
295.86651
295.75033
295.64621
295.55372
328.10107
323.10701
319.58534
316.87295
314.67208
312.82439
311.23583
309.84604
308.61399
307.51053
306.51419
305.6087
304.78141
304.02231
303.32331
302.67778
302.0802
301.52595
301.01108
300.53222
300.08644
299.67118
299.2842
298.92353
298.5874
298.27425
297.98265
297.71136
297.45922
297.22519
297.00834
296.8078
296.6228
296.45261
296.2966
296.15415
296.02472
295.9078
295.80294
295.7097
328.12825
323.16161
319.65917
316.96148
314.77238
312.93439
311.35398
309.97111
308.745
307.64664
306.65468
305.75297
304.92892
304.17258
303.47592
302.83236
302.23642
301.68351
301.16971
300.69169
300.24653
299.8317
299.445
299.08445
298.74831
298.43504
298.14323
297.87163
297.6191
297.38463
297.16728
296.9662
296.78061
296.60981
296.45314
296.31002
296.1799
296.06228
295.95668
295.8627
328.15466
323.21466
319.73093
317.04752
314.86987
313.04133
311.46887
310.09277
308.87245
307.77909
306.79146
305.89346
305.07261
304.31902
303.6247
302.98311
302.38882
301.83727
301.32458
300.84743
300.40293
299.98859
299.6022
299.24183
298.90573
298.59239
298.30041
298.02855
297.7757
297.54083
297.32302
297.12143
296.9353
296.76391
296.60663
296.46287
296.33208
296.21377
296.10747
296.01277
328.18034
323.26624
319.8007
317.13118
314.96468
313.14534
311.58062
310.21113
308.99649
307.90803
306.92463
306.03029
305.21261
304.46174
303.76974
303.13013
302.53751
301.98734
301.47578
300.99953
300.55574
300.14192
299.7559
299.39574
299.05973
298.74636
298.45426
298.18219
297.92905
297.69382
297.4756
297.27355
297.0869
296.91497
296.75711
296.61273
296.4813
296.36233
296.25535
296.15994
328.20531
323.31639
319.86854
317.21254
315.05688
313.24652
311.68936
310.32632
309.11723
308.03357
307.05432
306.1636
305.34903
304.60085
303.91118
303.27354
302.68258
302.13381
301.62341
301.14809
300.70504
300.29178
299.90615
299.54625
299.21038
298.89703
298.60484
298.33261
298.07922
297.84367
297.62507
297.42259
297.23547
297.06302
296.9046
296.75964
296.6276
296.50798
296.40033
296.30423
328.2296
323.36518
319.93453
317.29169
315.1466
313.34497
311.79518
310.43844
309.23478
308.15582
307.18066
306.29348
305.48199
304.73648
304.0491
303.41343
302.82415
302.27679
301.76756
301.2932
300.85091
300.43823
300.05304
299.69344
299.35773
299.04444
298.75222
298.47985
298.22625
297.99043
297.77149
297.56861
297.38104
297.2081
297.04916
296.90363
296.771
296.65076
296.54247
296.44569
328.25323
323.41264
319.99873
317.3687
315.2339
313.44079
311.89819
310.5476
309.34925
308.27489
307.30374
306.42004
305.6116
304.86872
304.18362
303.54991
302.9623
302.41636
301.90831
301.43493
300.99342
300.58137
300.19664
299.83736
299.50187
299.18867
298.89643
298.62397
298.3702
298.13413
297.91488
297.71164
297.52365
297.35025
297.19081
297.04475
296.91155
296.79071
296.68178
296.58436
328.27623
323.45883
320.06122
317.44366
315.31888
313.53407
311.99848
310.6539
309.46074
308.39089
307.42366
306.5434
305.73794
304.99767
304.31482
303.68306
303.09713
302.55261
302.04576
301.57337
301.13267
300.72126
300.33703
299.9781
299.64284
299.32976
299.03756
298.76503
298.51111
298.27483
298.05531
297.85173
297.66336
297.48953
297.32961
297.18304
297.04928
296.92786
296.81833
296.72026
328.29862
323.50379
320.12204
317.51663
315.40161
313.62489
312.09615
310.75743
309.56935
308.50391
307.54054
306.66364
305.86113
305.12342
304.44281
303.81299
303.22872
302.68563
302.17998
301.70859
301.26872
300.85798
300.47426
300.11572
299.78072
299.4678
299.17564
298.90308
298.64905
298.41259
298.19281
297.98893
297.8002
297.62596
297.46559
297.31852
297.18424
297.06226
296.95213
296.85343
328.32041
323.54756
320.18126
317.58768
315.48217
313.71334
312.19128
310.85829
309.67516
308.61405
307.65446
306.78087
305.98125
305.24608
304.56768
303.93978
303.35717
302.81549
302.31105
301.84068
301.40166
300.99159
300.60841
300.25027
299.91556
299.60282
299.31075
299.03818
298.78407
298.54744
298.32745
298.12328
297.93421
297.75959
297.59879
297.45125
297.31646
297.19393
297.08322
296.98392
328.34164
323.59019
320.23893
317.65687
315.56064
313.7995
312.28395
310.95656
309.77828
308.72139
307.7655
306.89516
306.0984
305.36572
304.6895
304.0635
303.48254
302.94229
302.43906
301.96971
301.53154
301.12217
300.73954
300.38183
300.04743
299.73489
299.44293
299.17038
298.9162
298.67945
298.45925
298.25482
298.06545
297.89046
297.72925
297.58126
297.44598
297.32293
297.21165
297.11175
328.36231
323.6317
320.2951
317.72427
315.63707
313.88343
312.37425
311.05231
309.87878
308.82603
307.87377
307.00661
306.21265
305.48243
304.80837
304.18425
303.60493
303.06609
302.56407
302.09575
301.65844
301.24978
300.86772
300.51046
300.17638
299.86407
299.57223
299.29973
299.04551
298.80865
298.58828
298.38361
298.19394
298.01861
297.85702
297.7086
297.57284
297.44928
297.33746
297.23697
328.38245
323.67214
320.34982
317.78993
315.71154
313.96522
312.46223
311.14564
309.97673
308.92804
307.97933
307.1153
306.32409
305.59629
304.92436
304.3021
303.7244
303.18697
302.68616
302.21887
301.78243
301.37449
300.99301
300.63621
300.30248
299.99041
299.69872
299.42628
299.17205
298.9351
298.71457
298.50969
298.31975
298.1441
297.98213
297.8333
297.69709
297.57302
297.46067
297.35962
328.40207
323.71154
320.40313
317.8539
315.7841
314.04491
312.54799
311.2366
310.07222
309.02749
308.08226
307.2213
306.43279
305.70738
305.03755
304.41713
303.84104
303.305
302.8054
302.33914
301.90357
301.49636
301.11548
300.75914
300.42578
300.11397
299.82245
299.55009
299.29586
299.05884
298.83817
298.6331
298.44291
298.26695
298.10463
297.9554
297.81875
297.69421
297.58133
297.47972
328.42119
323.74994
320.45508
317.91625
315.85481
314.12259
312.63157
311.32527
310.16532
309.12447
308.18265
307.3247
306.53884
305.81578
305.14801
304.5294
303.9549
303.42025
302.92185
302.45663
302.02193
301.61545
301.23517
300.87933
300.54633
300.2348
299.94346
299.6712
299.41699
299.17992
298.95914
298.75388
298.56346
298.38721
298.22456
298.07495
297.93787
297.81286
297.69949
297.59734
328.43982
323.78735
320.50571
317.97701
315.92374
314.1983
312.71305
311.41172
310.2561
309.21903
308.28056
307.42555
306.64231
305.92154
305.25581
304.639
304.06607
303.53279
303.03559
302.57139
302.13757
301.73183
301.35216
300.99681
300.6642
300.35295
300.06181
299.78967
299.53549
299.29839
299.0775
298.87209
298.68145
298.50493
298.34196
298.19198
298.05449
297.92903
297.81517
297.71249
328.45798
323.82382
320.55506
318.03623
315.99092
314.27211
312.79249
311.49601
310.34462
309.31126
308.37605
307.52394
306.74325
306.02475
305.36102
304.74598
304.17461
303.64269
303.14667
302.6835
302.25055
301.84555
301.4665
301.11165
300.77944
300.46849
300.17756
299.90554
299.65142
299.41429
299.19332
298.98776
298.79692
298.62015
298.45687
298.30654
298.16866
298.04276
297.92841
297.82522
328.47568
323.85937
320.60316
318.09396
316.05642
314.34407
312.86994
311.57821
310.43094
309.40121
308.46921
307.61993
306.84175
306.12547
305.46371
304.85041
304.28057
303.75001
303.25516
302.79301
302.36093
301.95668
301.57825
301.2239
300.8921
300.58146
300.29075
300.01887
299.76481
299.52767
299.30664
299.10094
298.90991
298.7329
298.56933
298.41866
298.2804
298.15408
298.03927
297.93556
328.49293
323.89402
320.65006
318.15025
316.12028
314.41424
312.94547
311.65836
310.51514
309.48895
308.56008
307.71357
306.93786
306.22377
305.56394
304.95236
304.38404
303.8548
303.36112
302.89998
302.46878
302.06526
301.68745
301.33362
301.00223
300.69191
300.40143
300.1297
299.87572
299.63859
299.41749
299.21168
299.02047
298.84323
298.67938
298.52839
298.38976
298.26302
298.14776
298.04357
328.50976
323.9278
320.69578
318.20513
316.18254
314.48265
313.01912
311.73654
310.59725
309.57454
308.64873
307.80494
307.03164
306.3197
305.66178
305.05188
304.48505
303.95713
303.4646
303.00446
302.57413
302.17135
301.79417
301.44086
301.10988
300.79989
300.50965
300.23808
299.98418
299.74707
299.52593
299.32001
299.12864
298.95118
298.78707
298.63577
298.49678
298.36964
298.25394
298.14927
328.52616
323.96075
320.74036
318.25864
316.24326
314.54937
313.09095
311.81278
310.67735
309.65803
308.73522
307.8941
307.12316
306.41332
305.75727
305.14904
304.58368
304.05706
303.56567
303.10653
302.67706
302.27502
301.89846
301.54567
301.21511
300.90545
300.61545
300.34405
300.09025
299.85317
299.63199
299.42598
299.23446
299.0568
298.89243
298.74083
298.6015
298.47397
298.35784
298.2527
328.54216
323.99287
320.78383
318.31082
316.30247
314.61444
313.16101
311.88715
310.75549
309.73949
308.81961
307.98109
307.21247
306.5047
305.85049
305.24389
304.67998
304.15464
303.66438
303.20622
302.7776
302.3763
302.00037
301.64809
301.31797
301.00863
300.7189
300.44767
300.19398
299.95693
299.73573
299.52963
299.33797
299.16012
298.99551
298.84362
298.70395
298.57605
298.4595
298.3539
328.55776
324.02419
320.82622
318.36171
316.36022
314.67791
313.22934
311.95969
310.83171
309.81895
308.90195
308.06598
307.29963
306.59389
305.94148
305.33649
304.77401
304.24993
303.76078
303.3036
302.87583
302.47526
302.09994
301.74819
301.41849
301.1095
300.82002
300.54898
300.2954
300.0584
299.83718
299.63101
299.43921
299.26118
299.09634
298.94417
298.80418
298.67592
298.55896
298.45291
328.57297
324.05474
320.86757
318.41134
316.41654
314.73981
313.29599
312.03046
310.90607
309.89648
308.98229
308.14881
307.3847
306.68094
306.0303
305.42689
304.86581
304.34298
303.85493
303.39871
302.97178
302.57193
302.19724
301.84601
301.51673
301.20809
300.91887
300.64802
300.39456
300.15761
299.93638
299.73015
299.53823
299.36003
299.19497
299.04253
298.90223
298.77361
298.65625
298.54977
328.58781
324.08454
320.90789
318.45975
316.47148
314.80018
313.36101
312.09949
310.97862
309.97213
309.06068
308.22965
307.46771
306.7659
306.11701
305.51514
304.95545
304.43384
303.94687
303.4916
303.0655
302.66638
302.2923
301.94159
301.61274
301.30444
301.01549
300.74483
300.4915
300.25461
300.03339
299.82709
299.63507
299.4567
299.29143
299.13873
298.99813
298.86916
298.75142
298.64451
328.60228
324.1136
320.94722
318.50696
316.52506
314.85908
313.42443
312.16684
311.0494
310.04593
309.13717
308.30854
307.54873
306.84883
306.20164
305.6013
305.04296
304.52256
304.03666
303.58233
303.15706
302.75864
302.38518