/*--------------------------------*- C++ -*----------------------------------*\
| =========                 |                                                 |
| \\      /  F ield         | OpenFOAM: The Open Source CFD Toolbox           |
|  \\    /   O peration     | Version:  2506                                  |
|   \\  /    A nd           | Website:  www.openfoam.com                      |
|    \\/     M anipulation  |                                                 |
\*---------------------------------------------------------------------------*/
FoamFile
{
    version     2.0;
    format      ascii;
    arch        "LSB;label=32;scalar=64";
    class       volScalarField;
    location    "23000/water";
    object      alphat;
}
// * * * * * * * * * * * * * * * * * * * * * * * * * * * * * * * * * * * * * //

dimensions      [1 -1 -1 0 0 0 0];

internalField   nonuniform List<scalar> 
1000
(
0.038690245
0.038689577
0.038688046
0.038679676
0.038634252
0.038395956
0.037190881
0.031863289
0.019099264
0.016301307
0.036437656
0.036436968
0.036430539
0.036397696
0.036243742
0.035561449
0.032798674
0.024476362
0.014644258
0.017654592
0.034756095
0.034752687
0.034735392
0.034658264
0.034338316
0.033096044
0.028914327
0.020078525
0.014287395
0.017671293
0.033455039
0.033447371
0.03341324
0.03327659
0.032760733
0.030940116
0.025769949
0.018272081
0.015952051
0.017301529
0.032418332
0.032405139
0.032350677
0.032150524
0.031437425
0.029070368
0.023556139
0.01863585
0.018861531
0.016925711
0.031571667
0.031552637
0.031479594
0.031226154
0.030328084
0.027485171
0.02255496
0.020803574
0.022278832
0.01666625
0.030866455
0.030843488
0.030761493
0.030477932
0.029402041
0.026292123
0.023061798
0.024243894
0.025541399
0.016525212
0.030270851
0.030249447
0.030178157
0.029894492
0.02864433
0.025787488
0.02513857
0.028280589
0.028305027
0.016463216
0.029764734
0.029755542
0.029725683
0.029468692
0.028107239
0.026357347
0.028508491
0.032334533
0.030519195
0.016442692
0.029337065
0.029357537
0.029409803
0.02919685
0.02798125
0.02823753
0.032681274
0.036080604
0.032267543
0.016440707
0.028984754
0.029060649
0.029241392
0.029099748
0.028583733
0.031375181
0.037164704
0.03941361
0.03365918
0.016446401
0.028712545
0.02887871
0.029233213
0.029270563
0.030215537
0.03547872
0.04160876
0.042341614
0.034787792
0.016455609
0.028533632
0.028833083
0.029403446
0.029913158
0.033003015
0.0401616
0.045828155
0.044910577
0.035723407
0.016467072
0.028470714
0.028950942
0.029795681
0.031303961
0.036852389
0.045075616
0.049751581
0.047172271
0.036515355
0.016480524
0.028557088
0.029263997
0.030516036
0.033675923
0.041512174
0.049977156
0.053365708
0.049173944
0.037197752
0.016495909
0.028837218
0.029812235
0.031757357
0.037114055
0.046676404
0.05472608
0.056681719
0.050955434
0.037793684
0.016513131
0.029366542
0.030660414
0.033764284
0.041531057
0.052071098
0.059252904
0.059719571
0.05254779
0.038312927
0.016531933
0.030212171
0.031927876
0.036741496
0.046714494
0.057495333
0.063527314
0.06250074
0.053971557
0.038771753
0.016552023
0.031460271
0.033807799
0.040768836
0.052403177
0.062820501
0.06753887
0.065043891
0.055249975
0.039180803
0.016573204
0.0332371
0.036537358
0.045775169
0.058353639
0.067969893
0.071287028
0.067367562
0.056402455
0.039547853
0.016595309
0.035735096
0.040316357
0.051570824
0.064374724
0.07289751
0.074772604
0.069492212
0.057443795
0.039878872
0.016618162
0.039206202
0.04522493
0.057909246
0.070330246
0.077571331
0.078005551
0.071434729
0.058385894
0.040178191
0.016641573
0.043888544
0.05119016
0.064545155
0.076123298
0.08197321
0.080996816
0.073208738
0.059238044
0.040448915
0.016665344
0.049892721
0.058009343
0.071267402
0.081682472
0.086094247
0.083754812
0.074824789
0.06000716
0.040693157
0.016689272
0.057120828
0.065404391
0.077905555
0.086957286
0.089927637
0.086284969
0.076290232
0.060697971
0.040912186
0.016713149
0.065268718
0.073076949
0.084332797
0.091910058
0.093464935
0.088589286
0.077609282
0.061313212
0.04110653
0.016736752
0.073907462
0.080754719
0.090454396
0.096507538
0.096695831
0.090666531
0.078783341
0.061853886
0.041276085
0.016759842
0.082593604
0.088207914
0.096194019
0.10072083
0.099609174
0.092513157
0.079811664
0.062319665
0.041420279
0.016782158
0.090954643
0.095254795
0.10149075
0.10452661
0.10219491
0.09412488
0.080692408
0.062709483
0.041538305
0.016803421
0.098726905
0.1017624
0.10629911
0.10790893
0.1044464
0.095498605
0.08142396
0.063022285
0.041629417
0.016823345
0.10575422
0.10764445
0.11059
0.11086081
0.10636246
0.096634313
0.082006308
0.063257835
0.041693258
0.016841657
0.11196673
0.11285649
0.11435104
0.11338502
0.10794867
0.097536474
0.082442185
0.063417424
0.041730149
0.01685812
0.1173555
0.11738892
0.11758581
0.11549396
0.10921777
0.09821473
0.082737758
0.063504331
0.041741279
0.016872557
0.12195066
0.12125886
0.12031184
0.11720865
0.11018904
0.098683792
0.082902738
0.06352395
0.04172874
0.016884862
0.12580532
0.12450241
0.12255788
0.11855707
0.11088716
0.09896266
0.082949956
0.06348356
0.041695422
0.016895015
0.1289846
0.12716777
0.12436076
0.11957218
0.11134056
0.099073413
0.082894548
0.063391852
0.041644787
0.016903069
0.1315585
0.12930986
0.12576239
0.12028987
0.11157975
0.09903985
0.082752971
0.063258309
0.041580593
0.016909146
0.13359737
0.13098616
0.12680709
0.12074721
0.1116358
0.098886213
0.082542028
0.063092594
0.041506625
0.016913414
0.13516914
0.13225387
0.1275395
0.12098094
0.11153916
0.098636136
0.082278061
0.06290403
0.041426472
0.016916076
0.13633771
0.13316801
0.12800312
0.12102643
0.11131872
0.098311893
0.081976345
0.062701219
0.041343371
0.01691735
0.13716213
0.13378025
0.12823918
0.12091693
0.11100131
0.097933887
0.081650689
0.062491789
0.041260113
0.01691746
0.13769626
0.13413826
0.12828606
0.12068313
0.11061126
0.097520344
0.081313197
0.062282256
0.041178994
0.016916624
0.13798869
0.13428543
0.12817888
0.12035284
0.11017026
0.097087137
0.080974142
0.062077965
0.041101807
0.016915047
0.13808278
0.13426074
0.12794926
0.11995081
0.10969717
0.096647724
0.080641938
0.061883092
0.041029855
0.016912916
0.1380169
0.13409878
0.12762528
0.11949873
0.10920809
0.096213137
0.080323094
0.061700439
0.040962916
0.016910379
0.13782461
0.13382989
0.12723146
0.11901521
0.10871636
0.095792053
0.080022218
0.061531067
0.040902118
0.016907564
0.13753501
0.13348038
0.12678898
0.11851594
0.10823273
0.095390867
0.079741802
0.061377022
0.040847911
0.016904595
0.1371731
0.13307285
0.12631583
0.11801386
0.10776549
0.09501365
0.079484899
0.061239058
0.040800439
0.016901573
0.13676015
0.13262646
0.12582704
0.1175193
0.10732046
0.094664617
0.079252912
0.061117368
0.040759612
0.016898582
0.13631408
0.13215725
0.1253348
0.11704012
0.10690331
0.094346153
0.079046366
0.061011711
0.040725163
0.016895686
0.13584971
0.13167829
0.12484915
0.11658368
0.10651775
0.094059491
0.078865113
0.0609215
0.040696699
0.016892932
0.13537931
0.13120075
0.12437885
0.11615527
0.10616612
0.093804943
0.078708456
0.060845887
0.040673749
0.016890356
0.13491331
0.13073397
0.1239307
0.11575865
0.10584962
0.093582064
0.078575269
0.060783832
0.04065579
0.016887981
0.13446018
0.13028539
0.1235098
0.11539623
0.10556847
0.093389796
0.078464101
0.060734174
0.040642279
0.016885821
0.13402668
0.12986073
0.12311978
0.11506927
0.10532211
0.093226608
0.078373277
0.060695684
0.040632674
0.016883881
0.13361793
0.12946422
0.12276298
0.11477809
0.10510937
0.093090621
0.078300982
0.060667112
0.040626448
0.016882163
0.13323767
0.12909877
0.12244065
0.1145222
0.10492854
0.092979715
0.078245333
0.060647227
0.040623098
0.01688066
0.13288838
0.12876613
0.12215313
0.11430048
0.10477758
0.092891624
0.078204437
0.060634837
0.040622156
0.016879363
0.13257151
0.1284671
0.12190001
0.1141113
0.1046542
0.092824018
0.078176439
0.060628814
0.040623194
0.016878261
0.13228761
0.12820169
0.12168024
0.11395269
0.10455595
0.092774574
0.078159562
0.060628114
0.040625823
0.016877341
0.13203649
0.12796925
0.12149234
0.11382241
0.10448034
0.092741032
0.078152137
0.060631781
0.0406297
0.016876588
0.13181742
0.12776864
0.12133447
0.1137181
0.10442488
0.092721235
0.078152624
0.060638958
0.040634523
0.016875987
0.13162916
0.12759831
0.12120454
0.11363728
0.10438713
0.092713152
0.078159609
0.06064888
0.040640031
0.016875524
0.13147013
0.1274564
0.1211003
0.11357748
0.10436475
0.09271488
0.078171806
0.060660862
0.040645994
0.016875185
0.13133844
0.12734083
0.12101934
0.1135362
0.10435546
0.092724644
0.078188041
0.060674296
0.040652208
0.016874954
0.13123198
0.12724931
0.12095922
0.113511
0.10435712
0.092740802
0.078207251
0.060688641
0.040658498
0.016874817
0.13114848
0.12717946
0.12091746
0.11349952
0.10436773
0.092761855
0.078228491
0.060703427
0.040664717
0.016874758
0.13108554
0.12712885
0.12089161
0.11349951
0.10438542
0.092786464
0.078250939
0.06071826
0.040670744
0.016874766
0.1310408
0.12709506
0.12087934
0.11350889
0.10440854
0.092813469
0.078273905
0.06073282
0.040676489
0.016874826
0.13101191
0.12707579
0.12087847
0.11352579
0.10443565
0.09284189
0.078296833
0.060746865
0.040681891
0.016874929
0.13099666
0.12706886
0.12088701
0.11354854
0.1044655
0.092870916
0.07831928
0.060760214
0.040686909
0.016875065
0.13099298
0.12707226
0.12090315
0.11357567
0.10449702
0.092899878
0.078340897
0.060772726
0.040691471
0.016875226
0.13099895
0.12708414
0.12092526
0.11360588
0.10452932
0.09292822
0.078361396
0.060784259
0.040695556
0.016875404
0.13101279
0.12710279
0.12095184
0.11363804
0.1045616
0.092955468
0.078380521
0.060794743
0.040699185
0.016875592
0.13103286
0.12712666
0.12098159
0.11367114
0.10459319
0.092981214
0.078398101
0.060804166
0.040702373
0.016875784
0.13105765
0.12715434
0.12101331
0.1137043
0.10462351
0.093005154
0.07841406
0.060812521
0.040705133
0.016875977
0.13108579
0.12718455
0.12104595
0.11373676
0.1046521
0.093027122
0.078428348
0.060819823
0.040707488
0.016876165
0.13111609
0.12721618
0.12107863
0.11376793
0.10467869
0.09304701
0.078440965
0.060826108
0.040709463
0.016876346
0.13114748
0.12724827
0.12111063
0.11379742
0.1047031
0.093064782
0.078451953
0.060831436
0.040711089
0.016876517
0.1311791
0.12728008
0.12114143
0.11382493
0.10472522
0.093080465
0.078461391
0.060835876
0.040712399
0.016876677
0.13121026
0.12731102
0.12117064
0.11385027
0.10474503
0.093094132
0.07846938
0.060839509
0.040713427
0.016876824
0.13124044
0.12734063
0.12119797
0.11387334
0.10476257
0.093105883
0.078476031
0.060842413
0.040714208
0.016876959
0.13126922
0.12736858
0.12122322
0.1138941
0.1047779
0.093115836
0.078481457
0.060844666
0.04071477
0.016877081
0.13129628
0.12739461
0.12124626
0.11391254
0.10479111
0.093124112
0.07848577
0.060846338
0.040715142
0.016877191
0.13132138
0.12741853
0.12126701
0.11392869
0.10480229
0.093130839
0.078489077
0.060847498
0.040715348
0.016877287
0.13134435
0.12744023
0.12128545
0.11394263
0.10481159
0.093136148
0.078491484
0.060848208
0.040715411
0.01687737
0.13136508
0.12745962
0.1213016
0.11395444
0.10481912
0.093140175
0.078493097
0.060848532
0.040715356
0.016877441
0.13138352
0.12747672
0.12131551
0.11396427
0.10482506
0.093143066
0.078494024
0.060848532
0.040715203
0.016877499
0.13139969
0.12749157
0.12132731
0.11397226
0.10482956
0.093144966
0.078494372
0.060848268
0.040714976
0.016877547
0.13141364
0.12750425
0.12133711
0.11397858
0.10483279
0.093146022
0.078494243
0.060847796
0.040714694
0.016877586
0.13142549
0.12751489
0.12134509
0.1139834
0.10483493
0.09314637
0.078493731
0.060847167
0.040714373
0.016877615
0.13143535
0.12752364
0.1213514
0.1139869
0.10483612
0.093146132
0.078492917
0.060846423
0.040714028
0.016877637
0.13144337
0.12753064
0.12135621
0.11398923
0.10483652
0.093145414
0.078491869
0.060845598
0.040713668
0.016877652
0.13144971
0.12753606
0.12135967
0.11399056
0.10483623
0.093144309
0.078490643
0.060844718
0.040713302
0.016877661
0.1314545
0.12754003
0.12136194
0.113991
0.10483539
0.093142898
0.078489289
0.060843808
0.040712937
0.016877665
0.1314579
0.12754273
0.12136317
0.11399071
0.10483409
0.093141255
0.078487852
0.060842887
0.040712577
0.016877664
0.13146009
0.1275443
0.1213635
0.1139898
0.10483243
0.093139451
0.078486371
0.060841974
0.040712231
0.01687766
0.13146121
0.12754491
0.12136309
0.1139884
0.10483051
0.093137552
0.078484887
0.060841089
0.040711901
0.016877652
0.13146145
0.12754473
0.12136208
0.11398664
0.10482843
0.093135617
0.078483432
0.060840245
0.040711593
0.016877642
0.13146098
0.12754391
0.12136061
0.11398463
0.10482626
0.093133694
0.078482032
0.06083945
0.040711309
0.01687763
)
;

boundaryField
{
    water_inlet
    {
        type            calculated;
        value           uniform 0.041850807;
    }
    water_outlet
    {
        type            calculated;
        value           nonuniform List<scalar> 10(0.13146098 0.12754391 0.12136061 0.11398463 0.10482626 0.093133694 0.078482032 0.06083945 0.040711309 0.01687763);
    }
    water_wedge1
    {
        type            wedge;
    }
    water_wedge2
    {
        type            wedge;
    }
    water_to_rock
    {
        type            compressible::alphatWallFunction;
        value           nonuniform List<scalar> 
100
(
0.0020384971
0.0022594581
0.0022621707
0.0022020356
0.0021407405
0.0020983175
0.0020752202
0.0020650584
0.0020616931
0.0020613677
0.0020623018
0.0020638115
0.0020656908
0.0020678958
0.0020704175
0.00207324
0.0020763211
0.0020796126
0.0020830821
0.0020867024
0.0020904447
0.0020942777
0.0020981688
0.002102085
0.0021059918
0.0021098532
0.00211363
0.0021172795
0.0021207562
0.0021240134
0.0021270065
0.002129697
0.0021320559
0.0021340667
0.0021357257
0.002137042
0.0021380349
0.0021387321
0.0021391666
0.0021393743
0.0021393919
0.0021392554
0.0021389981
0.0021386503
0.0021382362
0.0021377766
0.0021372915
0.0021367976
0.0021363087
0.0021358354
0.0021353854
0.0021349646
0.0021345767
0.0021342239
0.0021339071
0.0021336263
0.0021333806
0.0021331686
0.0021329885
0.002132838
0.0021327149
0.0021326168
0.0021325414
0.002132486
0.0021324483
0.0021324258
0.0021324162
0.0021324172
0.002132427
0.0021324438
0.0021324662
0.0021324926
0.0021325218
0.0021325525
0.002132584
0.0021326154
0.0021326461
0.0021326756
0.0021327035
0.0021327297
0.0021327539
0.002132776
0.002132796
0.0021328138
0.0021328295
0.002132843
0.0021328544
0.002132864
0.0021328717
0.002132878
0.0021328827
0.0021328863
0.0021328887
0.0021328901
0.0021328907
0.0021328905
0.0021328897
0.0021328885
0.0021328869
0.0021328851
)
;
    }
}


// ************************************************************************* //
