/*--------------------------------*- C++ -*----------------------------------*\
| =========                 |                                                 |
| \\      /  F ield         | OpenFOAM: The Open Source CFD Toolbox           |
|  \\    /   O peration     | Version:  2506                                  |
|   \\  /    A nd           | Website:  www.openfoam.com                      |
|    \\/     M anipulation  |                                                 |
\*---------------------------------------------------------------------------*/
FoamFile
{
    version     2.0;
    format      ascii;
    arch        "LSB;label=32;scalar=64";
    class       volScalarField;
    location    "23000/water";
    object      epsilon;
}
// * * * * * * * * * * * * * * * * * * * * * * * * * * * * * * * * * * * * * //

dimensions      [0 2 -3 0 0 0 0];

internalField   nonuniform List<scalar> 
1000
(
7.2399316e-05
7.2397808e-05
7.2397502e-05
7.2398682e-05
7.2424146e-05
7.2686938e-05
7.4736184e-05
8.8973295e-05
0.00019794853
0.0013048048
4.7739543e-05
4.7745807e-05
4.7746167e-05
4.7748745e-05
4.7810065e-05
4.8371229e-05
5.2145896e-05
7.5319317e-05
0.00023607337
0.0016574915
3.3261229e-05
3.326441e-05
3.3263962e-05
3.3272039e-05
3.3396639e-05
3.4348945e-05
3.9973167e-05
7.1502225e-05
0.00026550029
0.0016622
2.4212884e-05
2.4213778e-05
2.421353e-05
2.4236018e-05
2.4468828e-05
2.5979961e-05
3.4086677e-05
7.6375169e-05
0.00030233564
0.0015600258
1.8263229e-05
1.8263302e-05
1.8265922e-05
1.8318446e-05
1.873072e-05
2.1090701e-05
3.293547e-05
9.0422639e-05
0.0003505343
0.0014605591
1.4183053e-05
1.4183388e-05
1.4193787e-05
1.4301413e-05
1.5003316e-05
1.8678141e-05
3.6167879e-05
0.00011337673
0.00040230412
0.0013944156
1.1285033e-05
1.1287109e-05
1.1313191e-05
1.1514088e-05
1.2672057e-05
1.836067e-05
4.385421e-05
0.00014255079
0.00044702348
0.0013593137
9.1651308e-06
9.1712238e-06
9.2251473e-06
9.5765193e-06
1.1437685e-05
2.0107272e-05
5.5828373e-05
0.00017322878
0.00047957553
0.0013440712
7.5754963e-06
7.5890768e-06
7.6892456e-06
8.2761069e-06
1.1198235e-05
2.4041286e-05
7.1187011e-05
0.00020099012
0.00050080682
0.0013390502
6.3585386e-06
6.3848727e-06
6.5589459e-06
7.5064256e-06
1.1984541e-05
3.0236123e-05
8.8277241e-05
0.00022355869
0.0005139297
0.0013385655
5.4111025e-06
5.4581714e-06
5.7474938e-06
7.2369315e-06
1.3906682e-05
3.8515424e-05
0.00010524298
0.00024078268
0.0005219786
0.0013399575
4.6642397e-06
4.7441299e-06
5.2100521e-06
7.4969455e-06
1.7087009e-05
4.8355561e-05
0.00012068231
0.00025359527
0.00052708047
0.0013422095
4.0714677e-06
4.2024398e-06
4.9349797e-06
8.3622633e-06
2.1575475e-05
5.8975537e-05
0.00013393061
0.00026313413
0.00053055277
0.0013450163
3.6019035e-06
3.8114128e-06
4.9402428e-06
9.9351163e-06
2.7272248e-05
6.9567144e-05
0.00014492633
0.00027035438
0.00053316286
0.001348315
3.2363931e-06
3.5653601e-06
5.2715506e-06
1.2311459e-05
3.3901739e-05
7.951077e-05
0.00015392451
0.00027595634
0.00053534089
0.0013520944
2.9656642e-06
3.4742234e-06
5.9984086e-06
1.5537512e-05
4.1062786e-05
8.8461045e-05
0.00016127363
0.00028042541
0.00053731671
0.0013563338
2.7900132e-06
3.5645532e-06
7.2040686e-06
1.9569984e-05
4.8330106e-05
9.630706e-05
0.00016730379
0.00028408918
0.00053917771
0.0013609722
2.7202656e-06
3.8804157e-06
8.9663883e-06
2.426144e-05
5.5350042e-05
0.00010308381
0.00017229233
0.00028715793
0.00054093704
0.0013659399
2.779739e-06
4.4819616e-06
1.1330794e-05
2.9383051e-05
6.188749e-05
0.00010889374
0.000176452
0.0002897539
0.00054267263
0.0013711901
3.0065681e-06
5.4386934e-06
1.4283594e-05
3.4675036e-05
6.782085e-05
0.0001138566
0.00017993852
0.00029198035
0.00054443442
0.0013766839
3.4547946e-06
6.8148525e-06
1.773861e-05
3.989972e-05
7.3111843e-05
0.00011808669
0.00018285387
0.00029394152
0.00054623649
0.0013823792
4.1911601e-06
8.6476034e-06
2.1546226e-05
4.4874715e-05
7.7769156e-05
0.00012165878
0.00018531786
0.00029569742
0.00054807386
0.0013882299
5.2836043e-06
1.0924864e-05
2.5521728e-05
4.9478031e-05
8.180366e-05
0.00012466939
0.0001874128
0.00029728398
0.00054993268
0.0013941874
6.7799405e-06
1.3574418e-05
2.9480246e-05
5.362255e-05
8.5253107e-05
0.00012719929
0.00018919517
0.00029872102
0.00055179401
0.0014002015
8.6832514e-06
1.6474056e-05
3.3249982e-05
5.7259514e-05
8.8167035e-05
0.00012930769
0.00019070227
0.00030001678
0.00055363524
0.0014062196
1.0937831e-05
1.9464215e-05
3.6694107e-05
6.0377164e-05
9.0586593e-05
0.0001310365
0.00019195672
0.00030117062
0.00055543045
0.0014121858
1.3423276e-05
2.2384318e-05
3.9726956e-05
6.2977856e-05
9.2544757e-05
0.00013241418
0.00019297018
0.00030217519
0.00055715071
0.0014180386
1.5988124e-05
2.5103506e-05
4.2303156e-05
6.5074408e-05
9.4068668e-05
0.00013345985
0.00019374678
0.00030301857
0.00055876491
0.0014237106
1.8484553e-05
2.7531405e-05
4.4410717e-05
6.6689272e-05
9.5183186e-05
0.00013418765
0.00019428679
0.000303687
0.00056024142
0.0014291291
2.0793684e-05
2.9617767e-05
4.6063569e-05
6.785433e-05
9.5914514e-05
0.00013461102
0.00019459043
0.00030416794
0.00056155063
0.0014342186
2.2836491e-05
3.134573e-05
4.7294062e-05
6.8609994e-05
9.6292887e-05
0.00013474639
0.00019466141
0.00030445332
0.00056266813
0.0014389068
2.4572752e-05
3.2723043e-05
4.8145998e-05
6.9003255e-05
9.6353752e-05
0.00013461549
0.00019450956
0.00030454217
0.0005635776
0.0014431302
2.5993464e-05
3.3773727e-05
4.8668813e-05
6.9085003e-05
9.6137427e-05
0.00013424625
0.0001941521
0.00030444212
0.00056427282
0.0014468405
2.7111448e-05
3.4531258e-05
4.891317e-05
6.8907212e-05
9.5687622e-05
0.00013367216
0.00019361355
0.00030416943
0.00056475817
0.0014500085
2.7952833e-05
3.5033478e-05
4.8927975e-05
6.8520464e-05
9.504941e-05
0.00013293066
0.00019292423
0.00030374772
0.00056504766
0.0014526263
2.8550503e-05
3.531905e-05
4.8758541e-05
6.7972076e-05
9.4267135e-05
0.00013206102
0.00019211819
0.00030320576
0.00056516275
0.0014547056
2.8939542e-05
3.542518e-05
4.8445631e-05
6.7304883e-05
9.3382612e-05
0.00013110208
0.00019123069
0.00030257483
0.00056512974
0.0014562756
2.915435e-05
3.538626e-05
4.8025089e-05
6.6556588e-05
9.2433806e-05
0.00013009045
0.00019029602
0.00030188628
0.0005649771
0.0014573786
2.9226974e-05
3.5233169e-05
4.7527841e-05
6.5759564e-05
9.1454007e-05
0.00012905904
0.00018934565
0.0003011695
0.00056473326
0.0014580661
2.9186268e-05
3.4993026e-05
4.6980127e-05
6.4940967e-05
9.0471448e-05
0.00012803623
0.00018840702
0.00030045047
0.00056442486
0.0014583947
2.9057575e-05
3.4689206e-05
4.6403852e-05
6.4123046e-05
8.9509277e-05
0.00012704541
0.00018750283
0.00029975089
0.00056407561
0.0014584225
2.886274e-05
3.4341539e-05
4.5817e-05
6.3323576e-05
8.8585786e-05
0.00012610497
0.00018665078
0.00029908779
0.00056370562
0.0014582062
2.8620294e-05
3.3966588e-05
4.5234065e-05
6.2556336e-05
8.7714803e-05
0.00012522853
0.00018586375
0.00029847359
0.00056333104
0.0014577991
2.8345732e-05
3.3577977e-05
4.4666476e-05
6.1831617e-05
8.6906176e-05
0.0001244254
0.00018515013
0.00029791636
0.00056296404
0.0014572489
2.8051836e-05
3.3186731e-05
4.4123006e-05
6.1156699e-05
8.6166295e-05
0.00012370106
0.00018451436
0.00029742016
0.00056260888
0.001456594
2.7749002e-05
3.2801607e-05
4.3610151e-05
6.0536332e-05
8.5498671e-05
0.0001230579
0.00018395779
0.00029698499
0.00056226346
0.0014558672
2.7445557e-05
3.2429406e-05
4.3132492e-05
5.997318e-05
8.4904488e-05
0.0001224958
0.0001834786
0.00029660463
0.00056194045
0.0014551001
2.7148052e-05
3.207527e-05
4.2693012e-05
5.9468224e-05
8.4383052e-05
0.00012201231
0.00018307006
0.00029628038
0.0005616465
0.0014543195
2.6861534e-05
3.1742944e-05
4.2293391e-05
5.9021104e-05
8.3932048e-05
0.0001216012
0.00018272937
0.000296011
0.00056138454
0.0014535471
2.6589793e-05
3.1435032e-05
4.1934316e-05
5.8630234e-05
8.3546374e-05
0.00012125844
0.00018245248
0.00029579333
0.00056115526
0.0014527994
2.6335598e-05
3.1153218e-05
4.1615271e-05
5.8292225e-05
8.3222159e-05
0.00012097922
0.00018223422
0.00029562309
0.00056095793
0.0014520891
2.6100749e-05
3.0898062e-05
4.1334757e-05
5.8004101e-05
8.2954977e-05
0.0001207581
0.00018206883
0.00029549539
0.00056079088
0.001451425
2.5886142e-05
3.0669454e-05
4.1091095e-05
5.7762522e-05
8.2740028e-05
0.00012058927
0.00018195028
0.00029540514
0.00056065191
0.0014508131
2.5692133e-05
3.0466872e-05
4.0882292e-05
5.7563884e-05
8.2572307e-05
0.00012046683
0.00018187252
0.00029534725
0.00056053856
0.0014502567
2.5518649e-05
3.0289451e-05
4.0706103e-05
5.7404416e-05
8.2446742e-05
0.00012038493
0.0001818297
0.00029531684
0.00056044823
0.0014497573
2.5365272e-05
3.0136047e-05
4.05601e-05
5.7280276e-05
8.2358315e-05
0.00012033792
0.00018181628
0.00029530937
0.00056037836
0.0014493146
2.5231308e-05
3.0005297e-05
4.0441738e-05
5.7187625e-05
8.2302155e-05
0.00012032044
0.0001818271
0.00029532064
0.00056032645
0.0014489274
2.5115842e-05
2.9895677e-05
4.034841e-05
5.7122696e-05
8.2273613e-05
0.00012032748
0.00018185746
0.00029534688
0.00056029014
0.0014485932
2.5017793e-05
2.980555e-05
4.0277506e-05
5.7081853e-05
8.2268317e-05
0.00012035445
0.00018190313
0.00029538471
0.00056026723
0.0014483093
2.4935961e-05
2.9733211e-05
4.0226448e-05
5.7061633e-05
8.228221e-05
0.00012039719
0.00018196034
0.00029543121
0.00056025574
0.0014480722
2.4869057e-05
2.9676927e-05
4.0192738e-05
5.7058781e-05
8.2311578e-05
0.00012045196
0.0001820258
0.00029548382
0.00056025383
0.0014478783
2.481575e-05
2.9634967e-05
4.017398e-05
5.7070273e-05
8.2353057e-05
0.00012051547
0.00018209668
0.00029554037
0.00056025987
0.0014477239
2.4774683e-05
2.9605632e-05
4.0167907e-05
5.7093335e-05
8.2403641e-05
0.00012058486
0.00018217053
0.000295599
0.00056027234
0.0014476051
2.474451e-05
2.9587279e-05
4.0172402e-05
5.7125448e-05
8.2460675e-05
0.00012065764
0.00018224531
0.00029565813
0.00056028986
0.001447518
2.472391e-05
2.9578337e-05
4.0185507e-05
5.7164355e-05
8.2521842e-05
0.00012073171
0.00018231931
0.00029571646
0.00056031112
0.0014474586
2.4711606e-05
2.9577326e-05
4.0205436e-05
5.7208059e-05
8.2585153e-05
0.00012080531
0.00018239116
0.00029577292
0.00056033498
0.0014474232
2.4706384e-05
2.9582868e-05
4.0230577e-05
5.7254816e-05
8.2648931e-05
0.00012087704
0.00018245975
0.00029582668
0.00056036045
0.0014474079
2.4707102e-05
2.9593695e-05
4.0259498e-05
5.7303132e-05
8.2711789e-05
0.00012094574
0.00018252428
0.00029587714
0.00056038673
0.0014474095
2.4712702e-05
2.9608657e-05
4.0290945e-05
5.7351746e-05
8.2772611e-05
0.00012101057
0.00018258416
0.00029592388
0.00056041319
0.0014474248
2.4722212e-05
2.9626723e-05
4.0323832e-05
5.7399616e-05
8.2830522e-05
0.00012107091
0.00018263904
0.00029596666
0.00056043934
0.0014474513
2.4734754e-05
2.9646981e-05
4.0357236e-05
5.74459e-05
8.2884864e-05
0.00012112634
0.00018268871
0.00029600535
0.00056046476
0.0014474866
2.4749541e-05
2.9668632e-05
4.0390385e-05
5.7489935e-05
8.2935163e-05
0.0001211766
0.00018273309
0.0002960399
0.00056048891
0.0014475283
2.4765879e-05
2.9690992e-05
4.0422647e-05
5.7531218e-05
8.2981111e-05
0.0001212216
0.00018277221
0.00029607027
0.00056051103
0.0014475743
2.4783162e-05
2.9713479e-05
4.0453518e-05
5.7569392e-05
8.302254e-05
0.00012126134
0.00018280619
0.00029609633
0.00056053101
0.0014476228
2.4800872e-05
2.9735611e-05
4.0482611e-05
5.7604225e-05
8.3059407e-05
0.00012129595
0.00018283512
0.00029611822
0.0005605491
0.0014476723
2.481857e-05
2.9756996e-05
4.0509645e-05
5.7635601e-05
8.3091772e-05
0.00012132555
0.00018285918
0.00029613636
0.0005605654
0.0014477218
2.4835898e-05
2.977733e-05
4.0534436e-05
5.7663498e-05
8.3119727e-05
0.00012135033
0.00018287882
0.00029615114
0.00056057995
0.0014477701
2.4852567e-05
2.9796387e-05
4.0556884e-05
5.7687933e-05
8.3143416e-05
0.00012137068
0.00018289448
0.00029616291
0.00056059283
0.0014478165
2.486836e-05
2.9814012e-05
4.0576921e-05
5.7708981e-05
8.3163124e-05
0.00012138699
0.00018290659
0.00029617203
0.00056060412
0.0014478605
2.4883105e-05
2.9830081e-05
4.0594545e-05
5.7726809e-05
8.3179167e-05
0.00012139969
0.00018291556
0.0002961788
0.00056061392
0.0014479017
2.4896675e-05
2.9844529e-05
4.0609816e-05
5.7741628e-05
8.3191881e-05
0.00012140916
0.00018292181
0.00029618354
0.00056062233
0.0014479399
2.4908994e-05
2.9857341e-05
4.0622836e-05
5.7753672e-05
8.3201607e-05
0.00012141581
0.00018292568
0.00029618651
0.00056062942
0.0014479748
2.4920024e-05
2.9868539e-05
4.0633738e-05
5.7763191e-05
8.3208687e-05
0.00012142001
0.00018292755
0.00029618799
0.00056063528
0.0014480063
2.4929765e-05
2.9878179e-05
4.0642675e-05
5.7770445e-05
8.3213452e-05
0.00012142211
0.00018292772
0.00029618818
0.00056063998
0.0014480343
2.4938243e-05
2.9886338e-05
4.0649814e-05
5.7775691e-05
8.3216223e-05
0.00012142246
0.0001829265
0.00029618732
0.00056064362
0.001448059
2.4945508e-05
2.9893113e-05
4.065533e-05
5.7779184e-05
8.3217303e-05
0.00012142136
0.00018292417
0.00029618561
0.00056064629
0.0014480802
2.4951625e-05
2.989861e-05
4.0659404e-05
5.7781168e-05
8.3216977e-05
0.00012141909
0.00018292096
0.00029618323
0.00056064812
0.0014480982
2.4956674e-05
2.9902947e-05
4.0662209e-05
5.7781876e-05
8.3215506e-05
0.00012141592
0.00018291712
0.00029618036
0.00056064924
0.0014481132
2.4960743e-05
2.9906243e-05
4.066392e-05
5.7781526e-05
8.3213132e-05
0.00012141208
0.00018291283
0.00029617715
0.00056064976
0.0014481254
2.4963924e-05
2.9908617e-05
4.0664697e-05
5.7780317e-05
8.3210066e-05
0.00012140778
0.00018290828
0.00029617375
0.00056064978
0.0014481352
2.4966312e-05
2.9910188e-05
4.0664695e-05
5.7778431e-05
8.32065e-05
0.00012140317
0.0001829036
0.00029617024
0.00056064941
0.0014481427
2.4968001e-05
2.9911067e-05
4.0664054e-05
5.7776027e-05
8.3202595e-05
0.00012139842
0.00018289891
0.00029616673
0.0005606487
0.0014481482
2.4969081e-05
2.9911362e-05
4.0662903e-05
5.777325e-05
8.3198493e-05
0.00012139365
0.0001828943
0.00029616327
0.00056064772
0.001448152
2.4969642e-05
2.9911172e-05
4.0661358e-05
5.7770223e-05
8.3194313e-05
0.00012138895
0.00018288985
0.00029615992
0.00056064652
0.0014481542
2.4969766e-05
2.991059e-05
4.0659521e-05
5.7767053e-05
8.3190154e-05
0.0001213844
0.00018288563
0.00029615673
0.00056064516
0.001448155
2.4969529e-05
2.9909697e-05
4.0657484e-05
5.7763832e-05
8.3186099e-05
0.00012138008
0.00018288167
0.00029615372
0.0005606437
0.0014481547
2.4969003e-05
2.990857e-05
4.0655326e-05
5.7760637e-05
8.3182212e-05
0.00012137603
0.00018287801
0.00029615094
0.00056064219
0.0014481535
2.4968252e-05
2.9907275e-05
4.0653113e-05
5.7757529e-05
8.3178545e-05
0.00012137229
0.00018287468
0.00029614841
0.0005606407
0.0014481516
2.4967334e-05
2.9905872e-05
4.0650905e-05
5.7754559e-05
8.3175136e-05
0.00012136888
0.00018287168
0.00029614613
0.00056063925
0.0014481492
2.4966304e-05
2.9904415e-05
4.0648755e-05
5.7751777e-05
8.3172018e-05
0.00012136581
0.00018286901
0.00029614406
0.0005606378
0.0014481464
)
;

boundaryField
{
    water_inlet
    {
        type            turbulentMixingLengthDissipationRateInlet;
        mixingLength    0.005;
        phi             phi;
        k               k;
        value           uniform 0.00011791765;
    }
    water_outlet
    {
        type            inletOutlet;
        inletValue      uniform 0.0001;
        value           nonuniform List<scalar> 10(2.4966304e-05 2.9904415e-05 4.0648755e-05 5.7751777e-05 8.3172018e-05 0.00012136581 0.00018286901 0.00029614406 0.0005606378 0.0014481464);
    }
    water_wedge1
    {
        type            wedge;
    }
    water_wedge2
    {
        type            wedge;
    }
    water_to_rock
    {
        type            epsilonWallFunction;
        blending        stepwise;
        value           nonuniform List<scalar> 
100
(
0.0013048048
0.0016574915
0.0016622
0.0015600258
0.0014605591
0.0013944156
0.0013593137
0.0013440712
0.0013390502
0.0013385655
0.0013399575
0.0013422095
0.0013450163
0.001348315
0.0013520944
0.0013563338
0.0013609722
0.0013659399
0.0013711901
0.0013766839
0.0013823792
0.0013882299
0.0013941874
0.0014002015
0.0014062196
0.0014121858
0.0014180386
0.0014237106
0.0014291291
0.0014342186
0.0014389068
0.0014431302
0.0014468405
0.0014500085
0.0014526263
0.0014547056
0.0014562756
0.0014573786
0.0014580661
0.0014583947
0.0014584225
0.0014582062
0.0014577991
0.0014572489
0.001456594
0.0014558672
0.0014551001
0.0014543195
0.0014535471
0.0014527994
0.0014520891
0.001451425
0.0014508131
0.0014502567
0.0014497573
0.0014493146
0.0014489274
0.0014485932
0.0014483093
0.0014480722
0.0014478783
0.0014477239
0.0014476051
0.001447518
0.0014474586
0.0014474232
0.0014474079
0.0014474095
0.0014474248
0.0014474513
0.0014474866
0.0014475283
0.0014475743
0.0014476228
0.0014476723
0.0014477218
0.0014477701
0.0014478165
0.0014478605
0.0014479017
0.0014479399
0.0014479748
0.0014480063
0.0014480343
0.001448059
0.0014480802
0.0014480982
0.0014481132
0.0014481254
0.0014481352
0.0014481427
0.0014481482
0.001448152
0.0014481542
0.001448155
0.0014481547
0.0014481535
0.0014481516
0.0014481492
0.0014481464
)
;
    }
}


// ************************************************************************* //
