/*--------------------------------*- C++ -*----------------------------------*\
| =========                 |                                                 |
| \\      /  F ield         | OpenFOAM: The Open Source CFD Toolbox           |
|  \\    /   O peration     | Version:  2506                                  |
|   \\  /    A nd           | Website:  www.openfoam.com                      |
|    \\/     M anipulation  |                                                 |
\*---------------------------------------------------------------------------*/
FoamFile
{
    version     2.0;
    format      ascii;
    arch        "LSB;label=32;scalar=64";
    class       volScalarField;
    location    "23000/water";
    object      k;
}
// * * * * * * * * * * * * * * * * * * * * * * * * * * * * * * * * * * * * * //

dimensions      [0 2 -2 0 0 0 0];

internalField   nonuniform List<scalar> 
1000
(
0.00017657855
0.00017657518
0.00017657131
0.00017655365
0.00017648098
0.00017625478
0.00017589507
0.00017764177
0.00020514192
0.00048657967
0.00013915035
0.00013915817
0.00013914641
0.00013908743
0.00013888206
0.0001383736
0.00013797747
0.00014325064
0.00019616754
0.00057072179
0.00011343696
0.00011343683
0.00011340783
0.00011329561
0.00011298241
0.00011249021
0.00011342552
0.00012641414
0.00020548446
0.00057180213
9.4956345e-05
9.4947216e-05
9.4898274e-05
9.474799e-05
9.4461176e-05
9.4591079e-05
9.8882417e-05
0.00012463501
0.00023169833
0.00054812309
8.1180941e-05
8.1164581e-05
8.1102164e-05
8.0967047e-05
8.0960034e-05
8.2611544e-05
9.2929574e-05
0.00013695666
0.0002712837
0.00052456944
7.0599818e-05
7.0579371e-05
7.052347e-05
7.05048e-05
7.1168217e-05
7.559377e-05
9.5291138e-05
0.00016203204
0.00031585912
0.00050861015
6.2267978e-05
6.2250533e-05
6.2239521e-05
6.2499636e-05
6.4399464e-05
7.3303895e-05
0.00010610166
0.00019613539
0.0003564983
0.00050003837
5.5571435e-05
5.5570247e-05
5.5667661e-05
5.6450708e-05
6.0389073e-05
7.5971562e-05
0.00012498783
0.00023352007
0.00038871407
0.00049629333
5.0098706e-05
5.0135849e-05
5.044031e-05
5.2103085e-05
5.919075e-05
8.39846e-05
0.00015029947
0.00026896181
0.00041246929
0.0004950566
4.5567683e-05
4.5677875e-05
4.6337548e-05
4.9391766e-05
6.1096203e-05
9.7486924e-05
0.0001792024
0.00029964197
0.00042964006
0.0004949371
4.178281e-05
4.2019047e-05
4.3252204e-05
4.8416323e-05
6.651831e-05
0.00011597928
0.00020865648
0.00032501671
0.00044222988
0.00049528014
3.8609683e-05
3.9051448e-05
4.1174589e-05
4.9422838e-05
7.5808543e-05
0.00013819017
0.00023641997
0.00034571979
0.00045177465
0.0004958349
3.5960357e-05
3.6725377e-05
4.0189423e-05
5.2767074e-05
8.9028068e-05
0.0001623721
0.00026138224
0.00036268773
0.00045931507
0.00049652593
3.3785876e-05
3.5046472e-05
4.047816e-05
5.8837754e-05
0.00010577018
0.0001868284
0.00028330031
0.00037677325
0.00046551928
0.00049733744
3.2074328e-05
3.4079128e-05
4.2315864e-05
6.7933576e-05
0.0001251609
0.00021031425
0.00030238135
0.00038864911
0.00047080766
0.00049826638
3.0853727e-05
3.3954403e-05
4.6047935e-05
8.0117963e-05
0.00014606389
0.00023213636
0.00031898712
0.00039881722
0.00047543894
0.00049930736
3.0199482e-05
3.4878799e-05
5.2034053e-05
9.5115587e-05
0.00016736984
0.00025203093
0.00033348876
0.00040763788
0.00047952206
0.00050044507
3.0245905e-05
3.7135913e-05
6.0555996e-05
0.00011231922
0.0001882111
0.00026998861
0.00034621471
0.00041534869
0.0004831712
0.0005016621
3.11999e-05
4.1068844e-05
7.1707453e-05
0.00013091735
0.00020802814
0.00028612007
0.0003574263
0.00042213431
0.00048649187
0.00050294679
3.3351629e-05
4.7031174e-05
8.5310737e-05
0.0001500764
0.00022652173
0.00030057602
0.00036733089
0.00042814984
0.00048955806
0.00050428929
3.707051e-05
5.5301744e-05
0.00010090944
0.00016908792
0.00024356797
0.000313503
0.00037608854
0.00043353283
0.00049241554
0.00050567915
4.276756e-05
6.5979162e-05
0.00011784998
0.0001874312
0.00025913393
0.00032501578
0.00038386923
0.00043837694
0.00049509062
0.00050710494
5.0805496e-05
7.8898952e-05
0.0001354119
0.00020475521
0.0002732073
0.00033526163
0.00039079684
0.00044274745
0.00049759747
0.00050855471
6.1362281e-05
9.3622353e-05
0.00015292588
0.00022080461
0.00028583285
0.00034436355
0.00039696091
0.00044668811
0.00049994145
0.00051001615
7.430335e-05
0.00010951502
0.00016980477
0.00023542186
0.00029707744
0.00035241121
0.00040242259
0.00045022522
0.00050212075
0.0005114765
8.9143177e-05
0.00012582838
0.00018559504
0.00024853516
0.00030699145
0.00035946509
0.0004072194
0.00045337054
0.00050412729
0.00051292216
0.00010508564
0.00014184886
0.00019999883
0.00026010249
0.00031560927
0.00036556172
0.00041136967
0.00045612393
0.00050594761
0.0005143384
0.00012123888
0.00015699684
0.00021282879
0.0002701063
0.00032295509
0.00037072087
0.00041487799
0.00045847657
0.00050756426
0.00051570903
0.00013680024
0.00017085495
0.0002239892
0.00027855527
0.00032905214
0.0003749544
0.0004177418
0.00046041522
0.00050895801
0.00051701666
0.00015116576
0.00018316386
0.00023346059
0.00028548773
0.00033393264
0.000378276
0.00041995892
0.00046192743
0.00051011088
0.00051824344
0.00016395834
0.00019380054
0.00024128549
0.00029097299
0.00033764572
0.00038070994
0.00042153489
0.00046300692
0.00051100957
0.0005193722
0.00017500134
0.00020274964
0.0002475541
0.00029510909
0.0003402616
0.00038229711
0.00042248878
0.00046365824
0.00051164861
0.00052038802
0.00018426964
0.00021007434
0.00025239037
0.00029801731
0.00034187147
0.00038309753
0.00042285638
0.00046389961
0.00051203236
0.0005212796
0.00019183966
0.00021589019
0.00025593934
0.00029983487
0.00034258397
0.00038318928
0.00042269029
0.00046376342
0.00051217557
0.00052204027
0.00019784832
0.00022034361
0.00025835638
0.00030070721
0.00034251951
0.00038266455
0.00042205731
0.00046329447
0.00051210226
0.00052266835
0.00020246305
0.00022359547
0.00025979872
0.00030078093
0.00034180375
0.00038162414
0.00042103402
0.00046254651
0.00051184333
0.00052316696
0.00020586155
0.00022580929
0.000260419
0.00030019799
0.00034056159
0.00038017166
0.00041970153
0.00046157805
0.00051143375
0.00052354327
0.00020821912
0.00022714333
0.00026036093
0.00029909148
0.00033891214
0.0003784082
0.00041814064
0.00046044826
0.00051090964
0.0005238076
0.00020970108
0.00022774561
0.00025975647
0.00029758285
0.00033696517
0.00037642825
0.00041642774
0.00045921355
0.00051030593
0.00052397236
0.00021045887
0.0002277512
0.00025872437
0.00029578043
0.0003348188
0.00037431689
0.00041463197
0.00045792505
0.00050965463
0.00052405113
0.00021062832
0.00022728101
0.00025736966
0.0002937789
0.00033255849
0.00037214822
0.00041281341
0.0004566271
0.00050898365
0.00052405783
0.00021032932
0.00022644158
0.00025578379
0.00029165939
0.00033025672
0.00036998462
0.0004110223
0.00045535643
0.00050831627
0.00052400603
0.00020966636
0.00022532551
0.00025404521
0.00028949014
0.00032797338
0.00036787685
0.00040929881
0.00045414199
0.00050767089
0.00052390845
0.00020872937
0.00022401224
0.0002522201
0.00028732728
0.00032575643
0.00036586453
0.00040767347
0.00045300515
0.00050706108
0.00052377657
0.00020759493
0.00022256897
0.00025036341
0.00028521583
0.00032364289
0.00036397694
0.00040616759
0.00045195926
0.00050648745
0.00052361959
0.00020632746
0.00022105181
0.00024851981
0.00028319087
0.00032166003
0.00036223421
0.00040479426
0.0004510082
0.00050595605
0.00052344537
0.00020498053
0.0002195069
0.00024672491
0.00028127873
0.00031982661
0.00036064836
0.00040355775
0.00045015475
0.00050547541
0.0005232615
0.00020359812
0.00021797157
0.0002450063
0.00027949817
0.00031815403
0.00035922353
0.00040245835
0.00044940268
0.00050504946
0.00052307438
0.00020221583
0.00021647545
0.00024338466
0.0002778614
0.00031664682
0.00035795854
0.00040149649
0.0004487518
0.00050467897
0.00052288917
0.00020086201
0.00021504156
0.00024187477
0.00027637462
0.0003153039
0.00035685193
0.00040066905
0.00044819887
0.00050436263
0.00052270987
0.00019955881
0.0002136872
0.00024048562
0.00027503892
0.00031412352
0.00035589892
0.00039996998
0.00044773849
0.00050409768
0.00052253948
0.00019832278
0.00021242408
0.0002392219
0.0002738538
0.00031310079
0.00035509205
0.00039939118
0.0004473639
0.00050388048
0.00052238015
0.00019716554
0.00021125997
0.00023808568
0.00027281596
0.00031222843
0.00035442194
0.00039892317
0.00044706742
0.00050370681
0.0005222333
0.00019609517
0.00021019953
0.00023707638
0.00027191979
0.0003114973
0.00035387788
0.00039855568
0.00044684097
0.00050357219
0.00052209976
0.00019511669
0.00020924476
0.00023619116
0.00027115793
0.00031089698
0.00035344836
0.00039827805
0.00044667637
0.00050347211
0.00052197987
0.00019423259
0.00020839533
0.00023542532
0.00027052164
0.00031041621
0.00035312151
0.00039807962
0.00044656557
0.00050340215
0.00052187362
0.00019344315
0.00020764906
0.00023477275
0.00027000129
0.00031004332
0.00035288547
0.00039794998
0.0004465009
0.00050335808
0.00052178066
0.00019274687
0.00020700221
0.00023422621
0.00026958662
0.00030976649
0.00035272859
0.00039787919
0.00044647512
0.00050333594
0.00052170046
0.00019214079
0.00020644981
0.00023377772
0.00026926712
0.00030957409
0.00035263972
0.0003978579
0.00044648154
0.00050333208
0.0005216323
0.00019162078
0.00020598602
0.0002334188
0.00026903225
0.00030945487
0.00035260837
0.00039787751
0.0004465141
0.0005033432
0.00052157538
0.00019118183
0.00020560432
0.00023314076
0.00026887171
0.00030939816
0.0003526248
0.00039793017
0.00044656736
0.00050336636
0.00052152882
0.00019081832
0.00020529781
0.00023293486
0.00026877553
0.00030939395
0.00035268011
0.00039800887
0.00044663652
0.00050339895
0.00052149173
0.00019052417
0.00020505936
0.00023279252
0.00026873429
0.00030943302
0.00035276624
0.00039810737
0.00044671736
0.00050343867
0.00052146318
0.00019029305
0.00020488176
0.0002327054
0.00026873911
0.00030950689
0.00035287597
0.00039822014
0.00044680617
0.00050348347
0.00052144225
0.00019011854
0.0002047579
0.00023266555
0.00026878176
0.00030960788
0.00035300286
0.00039834234
0.00044689972
0.00050353151
0.00052142799
0.00018999418
0.00020468081
0.00023266542
0.00026885465
0.00030972909
0.00035314121
0.00039846975
0.00044699521
0.00050358119
0.00052141948
0.00018991365
0.0002046438
0.00023269797
0.00026895089
0.00030986441
0.00035328612
0.00039859879
0.00044709029
0.00050363114
0.00052141584
0.00018987084
0.00020464051
0.00023275671
0.00026906433
0.00031000849
0.00035343338
0.00039872646
0.00044718304
0.00050368027
0.00052141623
0.00018985994
0.00020466504
0.00023283578
0.00026918957
0.00031015679
0.00035357954
0.00039885039
0.00044727198
0.00050372774
0.00052141993
0.00018987553
0.00020471195
0.00023292995
0.00026932193
0.00031030555
0.00035372183
0.00039896874
0.00044735603
0.00050377294
0.00052142629
0.00018991264
0.00020477634
0.00023303465
0.00026945749
0.00031045168
0.00035385809
0.00039908018
0.00044743442
0.00050381543
0.00052143474
0.00018996673
0.00020485384
0.00023314589
0.00026959294
0.00031059272
0.00035398668
0.00039918372
0.0004475066
0.00050385453
0.00052144474
0.00019003375
0.00020494059
0.00023326031
0.0002697256
0.00031072676
0.00035410639
0.00039927869
0.00044757201
0.00050388977
0.00052145577
0.00019011009
0.00020503323
0.00023337501
0.00026985325
0.0003108523
0.00035421636
0.00039936453
0.00044763031
0.00050392122
0.00052146741
0.00019019257
0.00020512884
0.00023348762
0.00026997419
0.00031096827
0.00035431596
0.00039944091
0.00044768155
0.00050394908
0.00052147931
0.00019027841
0.00020522492
0.00023359619
0.00027008708
0.00031107392
0.0003544048
0.00039950785
0.00044772602
0.00050397349
0.00052149119
0.00019036527
0.00020531942
0.00023369917
0.000270191
0.00031116876
0.00035448285
0.0003995657
0.00044776407
0.00050399461
0.0005215028
0.00019045114
0.00020541065
0.00023379542
0.00027028527
0.00031125263
0.00035455047
0.00039961494
0.00044779611
0.00050401263
0.00052151395
0.00019053445
0.0002054973
0.00023388406
0.00027036961
0.00031132581
0.00035460816
0.00039965616
0.00044782261
0.00050402777
0.00052152452
0.0001906139
0.00020557836
0.0002339646
0.00027044405
0.00031138872
0.00035465658
0.00039969001
0.00044784407
0.00050404028
0.00052153441
0.00019068852
0.00020565313
0.00023403681
0.00027050887
0.00031144198
0.00035469645
0.00039971718
0.00044786103
0.00050405043
0.00052154356
0.00019075762
0.00020572119
0.00023410072
0.00027056449
0.00031148626
0.00035472855
0.00039973835
0.00044787397
0.00050405845
0.00052155193
0.00019082077
0.00020578234
0.00023415652
0.00027061145
0.0003115223
0.00035475364
0.00039975421
0.00044788337
0.00050406456
0.0005215595
0.00019087773
0.00020583658
0.00023420452
0.00027065034
0.00031155085
0.00035477248
0.00039976539
0.00044788967
0.00050406898
0.00052156624
0.00019092844
0.00020588401
0.00023424514
0.00027068182
0.00031157267
0.0003547858
0.00039977248
0.00044789329
0.00050407189
0.00052157216
0.00019097294
0.00020592487
0.00023427884
0.00027070656
0.00031158851
0.0003547943
0.00039977605
0.00044789461
0.00050407348
0.00052157726
0.00019101143
0.00020595948
0.00023430617
0.00027072524
0.0003115991
0.00035479867
0.00039977666
0.000447894
0.00050407396
0.0005215816
0.00019104416
0.00020598823
0.00023432769
0.00027073858
0.00031160517
0.00035479954
0.00039977482
0.00044789183
0.00050407352
0.00052158521
0.00019107149
0.00020601157
0.00023434401
0.00027074724
0.00031160741
0.00035479755
0.00039977102
0.00044788844
0.00050407235
0.00052158815
0.00019109381
0.00020603
0.00023435572
0.00027075192
0.00031160647
0.00035479327
0.00039976572
0.00044788412
0.00050407061
0.0005215905
0.00019111156
0.00020604401
0.00023436342
0.00027075322
0.00031160297
0.0003547872
0.0003997593
0.00044787916
0.00050406846
0.00052159231
0.00019112519
0.0002060541
0.00023436767
0.00027075175
0.00031159744
0.00035477981
0.0003997521
0.00044787377
0.000504066
0.00052159365
0.00019113516
0.00020606078
0.000234369
0.00027074801
0.00031159034
0.00035477146
0.00039974439
0.00044786811
0.00050406334
0.00052159456
0.00019114191
0.0002060645
0.00023436789
0.00027074249
0.00031158209
0.00035476249
0.00039973641
0.00044786234
0.00050406053
0.0005215951
0.00019114587
0.0002060657
0.00023436478
0.00027073559
0.00031157305
0.00035475316
0.00039972835
0.00044785658
0.00050405766
0.00052159531
0.00019114744
0.0002060648
0.0002343601
0.00027072769
0.00031156352
0.00035474372
0.00039972036
0.00044785092
0.00050405478
0.00052159524
0.00019114701
0.00020606219
0.0002343542
0.00027071913
0.00031155378
0.00035473437
0.00039971259
0.00044784545
0.00050405195
0.00052159495
0.00019114496
0.00020605823
0.00023434742
0.00027071019
0.00031154406
0.00035472529
0.00039970517
0.00044784028
0.00050404924
0.00052159448
0.00019114162
0.00020605324
0.00023434008
0.00027070114
0.00031153458
0.00035471662
0.00039969819
0.00044783545
0.00050404668
0.00052159389
0.00019113733
0.00020604757
0.00023433246
0.00027069222
0.00031152552
0.00035470847
0.0003996917
0.00044783096
0.00050404427
0.00052159322
)
;

boundaryField
{
    water_inlet
    {
        type            turbulentIntensityKineticEnergyInlet;
        intensity       0.05;
        value           uniform 0.000234375;
    }
    water_outlet
    {
        type            inletOutlet;
        inletValue      uniform 0.0001;
        value           nonuniform List<scalar> 10(0.00019113733 0.00020604757 0.00023433246 0.00027069222 0.00031152552 0.00035470847 0.0003996917 0.00044783096 0.00050404427 0.00052159322);
    }
    water_wedge1
    {
        type            wedge;
    }
    water_wedge2
    {
        type            wedge;
    }
    water_to_rock
    {
        type            kqRWallFunction;
        value           nonuniform List<scalar> 
100
(
0.00048657967
0.00057072179
0.00057180213
0.00054812309
0.00052456944
0.00050861015
0.00050003837
0.00049629333
0.0004950566
0.0004949371
0.00049528014
0.0004958349
0.00049652593
0.00049733744
0.00049826638
0.00049930736
0.00050044507
0.0005016621
0.00050294679
0.00050428929
0.00050567915
0.00050710494
0.00050855471
0.00051001615
0.0005114765
0.00051292216
0.0005143384
0.00051570903
0.00051701666
0.00051824344
0.0005193722
0.00052038802
0.0005212796
0.00052204027
0.00052266835
0.00052316696
0.00052354327
0.0005238076
0.00052397236
0.00052405113
0.00052405783
0.00052400603
0.00052390845
0.00052377657
0.00052361959
0.00052344537
0.0005232615
0.00052307438
0.00052288917
0.00052270987
0.00052253948
0.00052238015
0.0005222333
0.00052209976
0.00052197987
0.00052187362
0.00052178066
0.00052170046
0.0005216323
0.00052157538
0.00052152882
0.00052149173
0.00052146318
0.00052144225
0.00052142799
0.00052141948
0.00052141584
0.00052141623
0.00052141993
0.00052142629
0.00052143474
0.00052144474
0.00052145577
0.00052146741
0.00052147931
0.00052149119
0.0005215028
0.00052151395
0.00052152452
0.00052153441
0.00052154356
0.00052155193
0.0005215595
0.00052156624
0.00052157216
0.00052157726
0.0005215816
0.00052158521
0.00052158815
0.0005215905
0.00052159231
0.00052159365
0.00052159456
0.0005215951
0.00052159531
0.00052159524
0.00052159495
0.00052159448
0.00052159389
0.00052159322
)
;
    }
}


// ************************************************************************* //
