/*--------------------------------*- C++ -*----------------------------------*\
| =========                 |                                                 |
| \\      /  F ield         | OpenFOAM: The Open Source CFD Toolbox           |
|  \\    /   O peration     | Version:  2506                                  |
|   \\  /    A nd           | Website:  www.openfoam.com                      |
|    \\/     M anipulation  |                                                 |
\*---------------------------------------------------------------------------*/
FoamFile
{
    version     2.0;
    format      ascii;
    arch        "LSB;label=32;scalar=64";
    class       volScalarField;
    location    "23000/water";
    object      nut;
}
// * * * * * * * * * * * * * * * * * * * * * * * * * * * * * * * * * * * * * //

dimensions      [0 2 -1 0 0 0 0];

internalField   nonuniform List<scalar> 
1000
(
3.8760013e-05
3.8759344e-05
3.875781e-05
3.8749425e-05
3.8703919e-05
3.8465194e-05
3.7257946e-05
3.1920746e-05
1.9133704e-05
1.6330702e-05
3.6503362e-05
3.6502673e-05
3.6496233e-05
3.646333e-05
3.6309099e-05
3.5625575e-05
3.2857818e-05
2.4520499e-05
1.4670665e-05
1.7686427e-05
3.4818769e-05
3.4815355e-05
3.4798028e-05
3.4720761e-05
3.4400236e-05
3.3155725e-05
2.8966466e-05
2.0114732e-05
1.4313158e-05
1.7703159e-05
3.3515366e-05
3.3507685e-05
3.3473492e-05
3.3336596e-05
3.2819808e-05
3.0995909e-05
2.5816418e-05
1.830503e-05
1.5980817e-05
1.7332728e-05
3.247679e-05
3.2463573e-05
3.2409013e-05
3.2208499e-05
3.1494114e-05
2.9122789e-05
2.3598616e-05
1.8669455e-05
1.8895543e-05
1.6956232e-05
3.1628598e-05
3.1609534e-05
3.153636e-05
3.1282463e-05
3.0382773e-05
2.7534734e-05
2.2595632e-05
2.0841088e-05
2.2319007e-05
1.6696303e-05
3.0922115e-05
3.0899106e-05
3.0816964e-05
3.0532892e-05
2.945506e-05
2.6339534e-05
2.3103384e-05
2.4287612e-05
2.5587456e-05
1.6555011e-05
3.0325437e-05
3.0303994e-05
3.0232576e-05
2.9948399e-05
2.8695983e-05
2.5833989e-05
2.5183901e-05
2.8331586e-05
2.8356068e-05
1.6492903e-05
2.9818407e-05
2.9809199e-05
2.9779285e-05
2.9521832e-05
2.8157924e-05
2.6404876e-05
2.8559898e-05
3.239284e-05
3.0574229e-05
1.6472342e-05
2.9389967e-05
2.9410476e-05
2.9462836e-05
2.9249499e-05
2.8031707e-05
2.8288449e-05
3.2740206e-05
3.6145667e-05
3.232573e-05
1.6470353e-05
2.903702e-05
2.9113052e-05
2.9294122e-05
2.9152222e-05
2.8635277e-05
3.1431758e-05
3.7231721e-05
3.9484682e-05
3.3719876e-05
1.6476058e-05
2.8764321e-05
2.8930785e-05
2.9285928e-05
2.9323345e-05
3.0270023e-05
3.5542697e-05
4.1683791e-05
4.2417967e-05
3.4850523e-05
1.6485282e-05
2.8585085e-05
2.8885077e-05
2.9456468e-05
2.9967099e-05
3.3062527e-05
4.0234021e-05
4.5910794e-05
4.4991561e-05
3.5787825e-05
1.6496766e-05
2.8522054e-05
2.9003148e-05
2.984941e-05
3.136041e-05
3.6918843e-05
4.5156899e-05
4.9841295e-05
4.7257334e-05
3.6581201e-05
1.6510243e-05
2.8608584e-05
2.9316767e-05
3.0571064e-05
3.3736649e-05
4.158703e-05
5.0067277e-05
5.3461939e-05
4.9262617e-05
3.7264828e-05
1.6525655e-05
2.8889219e-05
2.9865993e-05
3.1814624e-05
3.7180981e-05
4.6760573e-05
5.4824764e-05
5.678393e-05
5.104732e-05
3.7861835e-05
1.6542908e-05
2.9419497e-05
3.0715703e-05
3.3825169e-05
4.1605948e-05
5.2164995e-05
5.9359751e-05
5.982726e-05
5.2642546e-05
3.8382014e-05
1.6561744e-05
3.0266651e-05
3.198545e-05
3.680775e-05
4.6798732e-05
5.7599011e-05
6.3641869e-05
6.2613444e-05
5.4068881e-05
3.8841668e-05
1.658187e-05
3.1517001e-05
3.3868763e-05
4.0842353e-05
5.2497673e-05
6.2933782e-05
6.7660659e-05
6.5161181e-05
5.5349604e-05
3.9251456e-05
1.660309e-05
3.3297034e-05
3.6603244e-05
4.5857713e-05
5.8458865e-05
6.8092459e-05
7.1415576e-05
6.7489043e-05
5.6504163e-05
3.9619167e-05
1.6625234e-05
3.5799535e-05
4.0389057e-05
5.1663818e-05
6.4490808e-05
7.3028962e-05
7.4907437e-05
6.9617523e-05
5.754738e-05
3.9950783e-05
1.6648129e-05
3.9276901e-05
4.5306481e-05
5.8013671e-05
7.0457069e-05
7.7711211e-05
7.8146215e-05
7.1563544e-05
5.8491178e-05
4.0250642e-05
1.6671582e-05
4.3967686e-05
5.1282469e-05
6.4661546e-05
7.6260567e-05
8.2121028e-05
8.1142873e-05
7.3340752e-05
5.9344865e-05
4.0521854e-05
1.6695395e-05
4.998269e-05
5.8113948e-05
7.1395915e-05
8.1829765e-05
8.6249496e-05
8.3905842e-05
7.4959717e-05
6.0115368e-05
4.0766536e-05
1.6719367e-05
5.7223831e-05
6.5522331e-05
7.8046038e-05
8.7114091e-05
9.0089798e-05
8.6440562e-05
7.6427802e-05
6.0807424e-05
4.0985961e-05
1.6743287e-05
6.5386413e-05
7.3208725e-05
8.448487e-05
9.2075794e-05
9.3633475e-05
8.8749035e-05
7.7749231e-05
6.1423775e-05
4.1180655e-05
1.6766932e-05
7.4040736e-05
8.090034e-05
9.0617508e-05
9.6681565e-05
9.6870198e-05
9.0830025e-05
7.8925407e-05
6.1965424e-05
4.1350516e-05
1.6790064e-05
8.2742541e-05
8.8366975e-05
9.6367481e-05
0.00010090245
9.9788794e-05
9.2679981e-05
7.9955584e-05
6.2432043e-05
4.149497e-05
1.6812421e-05
9.1118656e-05
9.5426563e-05
0.00010167376
0.00010471509
0.00010237919
9.429461e-05
8.0837917e-05
6.2822564e-05
4.1613209e-05
1.6833722e-05
9.8904934e-05
0.0001019459
0.0001064908
0.00010810352
0.00010463474
9.5670813e-05
8.1570788e-05
6.313593e-05
4.1704485e-05
1.6853682e-05
0.00010594492
0.00010783856
0.00011078942
0.00011106072
0.00010655426
9.6808569e-05
8.2154185e-05
6.3371904e-05
4.1768441e-05
1.6872027e-05
0.00011216864
0.00011306
0.00011455725
0.00011358948
0.00010814333
9.7712356e-05
8.2590849e-05
6.3531781e-05
4.1805399e-05
1.688852e-05
0.00011756713
0.0001176006
0.00011779784
0.00011570222
0.00010941471
9.8391836e-05
8.2886955e-05
6.3618845e-05
4.1816549e-05
1.6902982e-05
0.00012217057
0.00012147752
0.00012052879
0.00011742001
0.00011038774
9.8861744e-05
8.3052232e-05
6.3638499e-05
4.1803988e-05
1.691531e-05
0.00012603217
0.00012472692
0.00012277888
0.00011877086
0.00011108712
9.9141114e-05
8.3099535e-05
6.3598036e-05
4.1770609e-05
1.6925481e-05
0.00012921719
0.00012739709
0.00012458502
0.00011978779
0.00011154134
9.9252066e-05
8.3044027e-05
6.3506163e-05
4.1719883e-05
1.693355e-05
0.00013179573
0.00012954303
0.00012598917
0.00012050678
0.00011178095
9.9218444e-05
8.2902195e-05
6.3372379e-05
4.1655573e-05
1.6939637e-05
0.00013383828
0.00013122236
0.00012703575
0.00012096495
0.00011183711
9.9064529e-05
8.2690872e-05
6.3206365e-05
4.1581471e-05
1.6943913e-05
0.00013541288
0.00013249236
0.00012776949
0.0001211991
0.00011174029
9.8814001e-05
8.2426429e-05
6.3017462e-05
4.1501174e-05
1.6946579e-05
0.00013658356
0.00013340815
0.00012823394
0.00012124467
0.00011151946
9.8489173e-05
8.2124168e-05
6.2814285e-05
4.1417923e-05
1.6947856e-05
0.00013740947
0.00013402149
0.00012847043
0.00012113497
0.00011120147
9.8110486e-05
8.1797925e-05
6.2604477e-05
4.1334515e-05
1.6947966e-05
0.00013794456
0.00013438014
0.00012851739
0.00012090075
0.00011081072
9.7696197e-05
8.1459825e-05
6.2394566e-05
4.125325e-05
1.6947129e-05
0.00013823751
0.00013452758
0.00012841002
0.00012056986
0.00011036892
9.7262209e-05
8.1120159e-05
6.2189907e-05
4.1175924e-05
1.6945549e-05
0.00013833178
0.00013450284
0.00012817999
0.00012016711
0.00010989498
9.6822003e-05
8.0787355e-05
6.1994683e-05
4.1103842e-05
1.6943414e-05
0.00013826577
0.00013434059
0.00012785542
0.00011971422
0.00010940502
9.6386632e-05
8.0467937e-05
6.18117e-05
4.1036782e-05
1.6940873e-05
0.00013807314
0.00013407121
0.00012746089
0.00011922983
0.0001089124
9.5964789e-05
8.0166518e-05
6.1642023e-05
4.0975874e-05
1.6938053e-05
0.00013778302
0.00013372108
0.00012701762
0.00011872966
0.0001084279
9.556288e-05
7.9885596e-05
6.14877e-05
4.0921569e-05
1.6935078e-05
0.00013742046
0.00013331281
0.00012654361
0.00011822667
0.00010795982
9.5184983e-05
7.962823e-05
6.1349487e-05
4.0874012e-05
1.6932051e-05
0.00013700676
0.00013286562
0.00012605394
0.00011773121
0.00010751398
9.483532e-05
7.9395824e-05
6.1227577e-05
4.0833112e-05
1.6929055e-05
0.00013655989
0.00013239556
0.00012556081
0.00011725118
0.00010709609
9.4516282e-05
7.9188906e-05
6.112173e-05
4.07986e-05
1.6926153e-05
0.00013609468
0.00013191573
0.00012507428
0.00011679391
0.00010670983
9.4229103e-05
7.9007326e-05
6.1031357e-05
4.0770086e-05
1.6923394e-05
0.00013562344
0.00013143734
0.00012460314
0.00011636473
0.00010635757
9.3974097e-05
7.8850387e-05
6.0955607e-05
4.0747094e-05
1.6920813e-05
0.00013515659
0.00013096972
0.00012415418
0.00011596739
0.00010604049
9.3750816e-05
7.871696e-05
6.089344e-05
4.0729102e-05
1.6918434e-05
0.00013470265
0.00013052032
0.00012373252
0.00011560432
0.00010575883
9.3558201e-05
7.8605591e-05
6.0843693e-05
4.0715567e-05
1.691627e-05
0.00013426836
0.0001300949
0.00012334179
0.00011527677
0.00010551204
9.3394719e-05
7.8514603e-05
6.0805133e-05
4.0705945e-05
1.6914327e-05
0.00013385888
0.00012969768
0.00012298435
0.00011498507
0.0001052989
9.3258487e-05
7.8442178e-05
6.077651e-05
4.0699707e-05
1.6912606e-05
0.00013347793
0.00012933156
0.00012266144
0.00011472872
0.00010511775
9.3147381e-05
7.8386428e-05
6.0756589e-05
4.0696351e-05
1.69111e-05
0.00013312801
0.00012899832
0.00012237341
0.00011450659
0.00010496652
9.3059131e-05
7.8345459e-05
6.0744176e-05
4.0695408e-05
1.6909801e-05
0.00013281057
0.00012869876
0.00012211982
0.00011431707
0.00010484292
9.2991403e-05
7.831741e-05
6.0738143e-05
4.0696448e-05
1.6908697e-05
0.00013252615
0.00012843287
0.00012189966
0.00011415817
0.00010474449
9.2941869e-05
7.8300502e-05
6.0737441e-05
4.0699081e-05
1.6907775e-05
0.00013227459
0.00012820001
0.00012171142
0.00011402766
0.00010466875
9.2908266e-05
7.8293065e-05
6.0741115e-05
4.0702965e-05
1.690702e-05
0.00013205512
0.00012799904
0.00012155326
0.00011392316
0.00010461319
9.2888434e-05
7.8293552e-05
6.0748305e-05
4.0707797e-05
1.6906419e-05
0.00013186652
0.0001278284
0.0001214231
0.0001138422
0.00010457537
9.2880337e-05
7.830055e-05
6.0758245e-05
4.0713315e-05
1.6905955e-05
0.0001317072
0.00012768624
0.00012131867
0.00011378228
0.00010455294
9.2882067e-05
7.8312769e-05
6.0770249e-05
4.0719288e-05
1.6905615e-05
0.00013157528
0.00012757045
0.00012123757
0.00011374093
0.00010454364
9.2891849e-05
7.8329033e-05
6.0783707e-05
4.0725514e-05
1.6905384e-05
0.00013146863
0.00012747877
0.00012117734
0.00011371569
0.00010454531
9.2908037e-05
7.8348278e-05
6.0798078e-05
4.0731816e-05
1.6905246e-05
0.00013138497
0.0001274088
0.0001211355
0.00011370419
0.00010455593
9.2929127e-05
7.8369556e-05
6.0812891e-05
4.0738045e-05
1.6905188e-05
0.00013132192
0.00012735809
0.0001211096
0.00011370418
0.00010457365
9.2953781e-05
7.8392044e-05
6.082775e-05
4.0744083e-05
1.6905195e-05
0.00013127709
0.00012732425
0.00012109731
0.00011371358
0.00010459681
9.2980834e-05
7.8415053e-05
6.0842337e-05
4.0749839e-05
1.6905256e-05
0.00013124815
0.00012730494
0.00012109645
0.0001137305
0.00010462397
9.3009307e-05
7.8438021e-05
6.0856407e-05
4.0755251e-05
1.6905359e-05
0.00013123288
0.000127298
0.000121105
0.00011375329
0.00010465387
9.3038385e-05
7.8460509e-05
6.086978e-05
4.0760277e-05
1.6905495e-05
0.00013122919
0.0001273014
0.00012112117
0.00011378047
0.00010468546
9.3067399e-05
7.8482165e-05
6.0882314e-05
4.0764847e-05
1.6905656e-05
0.00013123517
0.0001273133
0.00012114331
0.00011381074
0.00010471781
9.3095792e-05
7.8502701e-05
6.0893868e-05
4.076894e-05
1.6905834e-05
0.00013124904
0.00012733199
0.00012116995
0.00011384296
0.00010475015
9.312309e-05
7.8521861e-05
6.090437e-05
4.0772576e-05
1.6906022e-05
0.00013126914
0.0001273559
0.00012119975
0.00011387612
0.0001047818
9.3148882e-05
7.8539472e-05
6.0913811e-05
4.0775769e-05
1.6906215e-05
0.00013129398
0.00012738363
0.00012123152
0.00011390934
0.00010481217
9.3172865e-05
7.855546e-05
6.0922181e-05
4.0778535e-05
1.6906408e-05
0.00013132217
0.0001274139
0.00012126423
0.00011394185
0.00010484081
9.3194873e-05
7.8569774e-05
6.0929496e-05
4.0780894e-05
1.6906597e-05
0.00013135253
0.00012744558
0.00012129696
0.00011397308
0.00010486745
9.3214797e-05
7.8582413e-05
6.0935793e-05
4.0782872e-05
1.6906778e-05
0.00013138397
0.00012747773
0.00012132902
0.00011400262
0.0001048919
9.3232601e-05
7.8593421e-05
6.094113e-05
4.0784501e-05
1.6906949e-05
0.00013141565
0.0001275096
0.00012135988
0.00011403018
0.00010491406
9.3248312e-05
7.8602876e-05
6.0945579e-05
4.0785813e-05
1.690711e-05
0.00013144687
0.00012754059
0.00012138914
0.00011405557
0.00010493391
9.3262003e-05
7.8610879e-05
6.0949217e-05
4.0786844e-05
1.6907257e-05
0.0001314771
0.00012757026
0.00012141652
0.00011407869
0.00010495148
9.3273776e-05
7.8617542e-05
6.0952127e-05
4.0787625e-05
1.6907393e-05
0.00013150593
0.00012759826
0.00012144181
0.00011409948
0.00010496684
9.3283747e-05
7.8622979e-05
6.0954383e-05
4.0788189e-05
1.6907515e-05
0.00013153304
0.00012762434
0.0001214649
0.00011411795
0.00010498007
9.3292038e-05
7.8627299e-05
6.0956059e-05
4.0788561e-05
1.6907624e-05
0.00013155819
0.0001276483
0.00012148569
0.00011413413
0.00010499128
9.3298777e-05
7.8630612e-05
6.0957221e-05
4.0788767e-05
1.6907721e-05
0.0001315812
0.00012767003
0.00012150416
0.00011414809
0.00010500059
9.3304095e-05
7.8633023e-05
6.0957933e-05
4.0788831e-05
1.6907804e-05
0.00013160197
0.00012768947
0.00012152033
0.00011415993
0.00010500814
9.330813e-05
7.8634639e-05
6.0958257e-05
4.0788775e-05
1.6907875e-05
0.00013162044
0.00012770659
0.00012153428
0.00011416978
0.00010501408
9.3311026e-05
7.8635568e-05
6.0958257e-05
4.0788623e-05
1.6907934e-05
0.00013163664
0.00012772147
0.00012154609
0.00011417778
0.00010501859
9.331293e-05
7.8635917e-05
6.0957992e-05
4.0788395e-05
1.6907982e-05
0.00013165062
0.00012773417
0.00012155591
0.00011418411
0.00010502183
9.3313988e-05
7.8635788e-05
6.095752e-05
4.0788113e-05
1.690802e-05
0.00013166248
0.00012774483
0.00012156391
0.00011418894
0.00010502397
9.3314336e-05
7.8635275e-05
6.095689e-05
4.0787791e-05
1.690805e-05
0.00013167236
0.0001277536
0.00012157023
0.00011419245
0.00010502517
9.3314097e-05
7.8634459e-05
6.0956144e-05
4.0787445e-05
1.6908072e-05
0.0001316804
0.00012776061
0.00012157505
0.00011419479
0.00010502556
9.3313378e-05
7.8633409e-05
6.0955317e-05
4.0787085e-05
1.6908087e-05
0.00013168674
0.00012776604
0.00012157852
0.00011419611
0.00010502528
9.3312271e-05
7.8632181e-05
6.0954436e-05
4.0786718e-05
1.6908096e-05
0.00013169154
0.00012777002
0.00012158079
0.00011419656
0.00010502443
9.3310858e-05
7.8630825e-05
6.0953524e-05
4.0786352e-05
1.69081e-05
0.00013169496
0.00012777272
0.00012158202
0.00011419626
0.00010502313
9.3309212e-05
7.8629384e-05
6.0952601e-05
4.0785992e-05
1.6908099e-05
0.00013169714
0.00012777429
0.00012158235
0.00011419535
0.00010502147
9.3307405e-05
7.8627901e-05
6.0951687e-05
4.0785645e-05
1.6908094e-05
0.00013169827
0.00012777491
0.00012158193
0.00011419395
0.00010501955
9.3305502e-05
7.8626414e-05
6.09508e-05
4.0785315e-05
1.6908086e-05
0.00013169851
0.00012777472
0.00012158092
0.00011419219
0.00010501746
9.3303563e-05
7.8624957e-05
6.0949954e-05
4.0785006e-05
1.6908076e-05
0.00013169803
0.00012777391
0.00012157945
0.00011419017
0.00010501528
9.3301637e-05
7.8623554e-05
6.0949159e-05
4.0784721e-05
1.6908065e-05
)
;

boundaryField
{
    water_inlet
    {
        type            calculated;
        value           uniform 4.1926275e-05;
    }
    water_outlet
    {
        type            calculated;
        value           nonuniform List<scalar> 10(0.00013169803 0.00012777391 0.00012157945 0.00011419017 0.00010501528 9.3301637e-05 7.8623554e-05 6.0949159e-05 4.0784721e-05 1.6908065e-05);
    }
    water_wedge1
    {
        type            wedge;
    }
    water_wedge2
    {
        type            wedge;
    }
    water_to_rock
    {
        type            nutkWallFunction;
        blending        stepwise;
        value           nonuniform List<scalar> 
100
(
1.7358471e-06
1.9240026e-06
1.9263124e-06
1.8751054e-06
1.8229106e-06
1.7867861e-06
1.7671179e-06
1.7584649e-06
1.7555992e-06
1.7553221e-06
1.7561175e-06
1.7574031e-06
1.7590034e-06
1.760881e-06
1.7630283e-06
1.7654318e-06
1.7680554e-06
1.7708582e-06
1.7738126e-06
1.7768955e-06
1.7800821e-06
1.783346e-06
1.7866595e-06
1.7899942e-06
1.793321e-06
1.7966091e-06
1.7998252e-06
1.8029329e-06
1.8058934e-06
1.808667e-06
1.8112157e-06
1.8135067e-06
1.8155155e-06
1.8172277e-06
1.8186404e-06
1.8197612e-06
1.8206068e-06
1.8212005e-06
1.8215704e-06
1.8217473e-06
1.8217623e-06
1.821646e-06
1.8214269e-06
1.8211308e-06
1.8207782e-06
1.8203868e-06
1.8199737e-06
1.8195532e-06
1.8191369e-06
1.8187338e-06
1.8183506e-06
1.8179923e-06
1.817662e-06
1.8173615e-06
1.8170918e-06
1.8168527e-06
1.8166435e-06
1.816463e-06
1.8163095e-06
1.8161814e-06
1.8160766e-06
1.8159931e-06
1.8159288e-06
1.8158817e-06
1.8158496e-06
1.8158304e-06
1.8158222e-06
1.8158231e-06
1.8158314e-06
1.8158458e-06
1.8158648e-06
1.8158873e-06
1.8159121e-06
1.8159383e-06
1.8159651e-06
1.8159919e-06
1.816018e-06
1.8160431e-06
1.8160669e-06
1.8160892e-06
1.8161098e-06
1.8161286e-06
1.8161457e-06
1.8161608e-06
1.8161742e-06
1.8161857e-06
1.8161954e-06
1.8162035e-06
1.8162102e-06
1.8162154e-06
1.8162195e-06
1.8162225e-06
1.8162246e-06
1.8162258e-06
1.8162263e-06
1.8162261e-06
1.8162255e-06
1.8162244e-06
1.8162231e-06
1.8162216e-06
)
;
    }
}


// ************************************************************************* //
