/*--------------------------------*- C++ -*----------------------------------*\
| =========                 |                                                 |
| \\      /  F ield         | OpenFOAM: The Open Source CFD Toolbox           |
|  \\    /   O peration     | Version:  2506                                  |
|   \\  /    A nd           | Website:  www.openfoam.com                      |
|    \\/     M anipulation  |                                                 |
\*---------------------------------------------------------------------------*/
FoamFile
{
    version     2.0;
    format      ascii;
    arch        "LSB;label=32;scalar=64";
    class       surfaceScalarField;
    location    "23000/water";
    object      phi;
}
// * * * * * * * * * * * * * * * * * * * * * * * * * * * * * * * * * * * * * //

dimensions      [1 0 -1 0 0 0 0];

oriented        oriented;

internalField   nonuniform List<scalar> 
1890
(
-4.1736247e-05
0.0022168351
-0.00015753622
0.0059586937
-0.00032930669
0.0087985477
-0.00054203243
0.010900937
-0.00078239504
0.012402155
-0.0010351826
0.013412336
-0.0012746193
0.014013996
-0.0014359745
0.014245356
-0.001284859
0.0140006
0.012745539
-3.1455824e-05
0.0022482909
-0.00011269723
0.0060399351
-0.00023219388
0.0089180443
-0.00037999426
0.011048737
-0.00054594261
0.012568103
-0.00071649909
0.013582893
-0.0008667452
0.014164242
-0.0009336196
0.01431223
-0.00073394513
0.013800926
0.012011594
-2.913883e-05
0.0022774298
-0.00010672997
0.0061175262
-0.00022105545
0.0090323698
-0.00036160335
0.011189285
-0.00051700155
0.012723501
-0.00067116253
0.013737054
-0.00079396214
0.014287042
-0.00081139832
0.014329666
-0.00056729977
0.013556827
0.011444294
-2.7339936e-05
0.0023047697
-0.00010102597
0.0061912122
-0.00020924239
0.0091405862
-0.00034097899
0.011321022
-0.00048374673
0.012866269
-0.00061911505
0.013872422
-0.00071088245
0.014378809
-0.00067660081
0.014295385
-0.0004202628
0.013300489
0.011024031
-2.5625221e-05
0.0023303949
-9.4386098e-05
0.0062599731
-0.0001950668
0.0092412669
-0.00031669843
0.011442653
-0.0004458947
0.012995465
-0.00056132363
0.013987851
-0.00061882773
0.014436313
-0.00053651417
0.014213071
-0.00029565664
0.013059632
0.010728375
-2.4159469e-05
0.0023545544
-8.8799402e-05
0.006324613
-0.00018306027
0.0093355277
-0.00029574135
0.011555334
-0.0004121083
0.013111832
-0.00050662236
0.014082365
-0.0005270357
0.014456727
-0.00040878386
0.014094819
-0.00020043243
0.01285128
0.010527942
-2.2965474e-05
0.0023775199
-8.4333427e-05
0.006385981
-0.00017335332
0.0094245476
-0.00027826845
0.01166025
-0.00038232653
0.01321589
-0.00045437782
0.014154416
-0.00043820356
0.014440552
-0.00030321409
0.01395983
-0.00013378674
0.012681853
0.010394155
-2.2023858e-05
0.0023995437
-8.0769841e-05
0.006444727
-0.00016540587
0.0095091836
-0.00026327214
0.011758116
-0.00035472689
0.013307345
-0.00040244324
0.014202133
-0.00035545839
0.014393568
-0.00022236893
0.01382674
-8.9855293e-05
0.012549339
0.0103043
-2.1260588e-05
0.0024208043
-7.7812689e-05
0.006501279
-0.00015855252
0.0095899234
-0.00024948563
0.011849049
-0.00032712281
0.013384982
-0.00034954675
0.014224557
-0.00028213071
0.014326152
-0.00016300416
0.013707614
-6.1427349e-05
0.012447762
0.010242873
-2.0607162e-05
0.0024414115
-7.5216713e-05
0.0065558886
-0.0001522325
0.0096669392
-0.00023577798
0.011932594
-0.00029784685
0.013447051
-0.00029644901
0.014223159
-0.00022024073
0.014249943
-0.00011980661
0.01360718
-4.2690136e-05
0.012370646
0.010200183
-2.0018282e-05
0.0024614297
-7.2804701e-05
0.006608675
-0.00014600136
0.0097401358
-0.00022120586
0.012007799
-0.00026613548
0.013491981
-0.00024532027
0.014202344
-0.00016974858
0.014174371
-8.795148e-05
0.013525383
-2.9805748e-05
0.0123125
0.010170377
-1.9463529e-05
0.0024808933
-7.0441393e-05
0.0066596529
-0.0001394775
0.0098091719
-0.00020502197
0.012073343
-0.00023228102
0.01351924
-0.00019838496
0.014168447
-0.00012919713
0.014105184
-6.3917848e-05
0.013460103
-2.048535e-05
0.012269068
0.010149892
-1.8918745e-05
0.002499812
-6.8008118e-05
0.0067087422
-0.00013229876
0.0098734626
-0.00018675577
0.0121278
-0.00019748175
0.013529966
-0.00015698017
0.014127946
-9.6700195e-05
0.014044904
-4.5354602e-05
0.013408758
-1.3426404e-05
0.012237139
0.010136465
-1.8360392e-05
0.0025181724
-6.5381834e-05
0.0067557637
-0.00012410704
0.0099321878
-0.00016633468
0.012170028
-0.00016333313
0.013526964
-0.00012140704
0.01408602
-7.0530502e-05
0.013994027
-3.0719954e-05
0.013368947
-7.8895644e-06
0.012214309
0.010128576
-1.7761431e-05
0.0025359338
-6.2419696e-05
0.0068004219
-0.00011457706
0.0099843451
-0.00014416274
0.012199614
-0.00013124024
0.013514042
-9.1273537e-05
0.014046053
-4.9296335e-05
0.01395205
-1.898626e-05
0.013338637
-3.4325415e-06
0.012198755
0.010125143
-1.7087914e-05
0.0025530217
-5.8952529e-05
0.0068422866
-0.0001034904
0.010028883
-0.00012105265
0.012217176
-0.00010208325
0.013495072
-6.5899121e-05
0.014009869
-3.1931862e-05
0.013918083
-9.4504679e-06
0.013316156
2.8721304e-07
0.012189018
0.01012543
-1.6296457e-05
0.0025693182
-5.479322e-05
0.0068807833
-9.0832139e-05
0.010064922
-9.7998439e-05
0.012224342
-7.6209502e-05
0.013473283
-4.4571424e-05
0.013978231
-1.7626374e-05
0.013891138
-1.556363e-06
0.013300086
3.37239e-06
0.012184089
0.010128803
-1.5331744e-05
0.00258465
-4.9761891e-05
0.0069152135
-7.6852374e-05
0.010092012
-7.5898113e-05
0.012223388
-5.3588483e-05
0.013450974
-2.6634129e-05
0.013951277
-5.7249515e-06
0.013870228
4.9984361e-06
0.013289362
5.849908e-06
0.012183237
0.010134653
-1.4126718e-05
0.0025987767
-4.3732637e-05
0.0069448194
-6.204407e-05
0.010110324
-5.537945e-05
0.012216723
-3.3986059e-05
0.01342958
-1.1512163e-05
0.013928803
4.2372995e-06
0.013854479
1.036802e-05
0.013283232
7.8669696e-06
0.012185739
0.01014252
-1.2609123e-05
0.0026113858
-3.669471e-05
0.006968905
-4.7031425e-05
0.010120661
-3.6775672e-05
0.012206468
-1.7081293e-05
0.013409886
1.3273161e-06
0.013910394
1.2526012e-05
0.01384328
1.4773072e-05
0.013280985
9.5152478e-06
0.012190996
0.010152035
-1.0718598e-05
0.0026221044
-2.8800874e-05
0.0069869873
-3.2420451e-05
0.01012428
-2.0182096e-05
0.012194229
-2.4822183e-06
0.013392186
1.2170232e-05
0.013895742
1.9374959e-05
0.013836076
1.8388103e-05
0.013281971
1.0860578e-05
0.012198524
0.010162895
-8.4362352e-06
0.0026305407
-2.0369282e-05
0.0069989204
-1.8684795e-05
0.010122596
-5.5182587e-06
0.012181063
1.0030359e-05
0.013376638
2.1196023e-05
0.013884576
2.5022495e-05
0.013832249
2.134385e-05
0.01328565
1.19505e-05
0.012207917
0.010174846
-5.8188706e-06
0.0026363596
-1.1825259e-05
0.0070049268
-6.1103808e-06
0.010116881
7.2769697e-06
0.012167676
2.0570721e-05
0.013363344
2.8684434e-05
0.013876462
2.9654038e-05
0.01383128
2.3737764e-05
0.013291566
1.2818975e-05
0.012218836
0.010187665
-3.0141717e-06
0.0026393737
-3.5958782e-06
0.0070055085
5.1029141e-06
0.010108182
1.8191078e-05
0.012154587
2.9354587e-05
0.01335218
3.4840004e-05
0.013870977
3.3406822e-05
0.013832713
2.5640786e-05
0.013299333
1.3490059e-05
0.012230987
0.010201155
-2.3413098e-07
0.0026396079
3.9069863e-06
0.0070013674
1.4740129e-05
0.010097349
2.7284952e-05
0.012142043
3.6559427e-05
0.013342906
3.9811813e-05
0.013867725
3.6376932e-05
0.013836148
2.7100519e-05
0.013308609
1.3978847e-05
0.012244109
0.010215134
2.2769725e-06
0.0026373309
1.0308585e-05
0.0069933358
2.2681479e-05
0.010084976
3.4655524e-05
0.012130069
4.2308286e-05
0.013335253
4.3696522e-05
0.013866336
3.8621478e-05
0.013841223
2.8141288e-05
0.013319089
1.4290593e-05
0.01225796
0.010229424
4.3217245e-06
0.0026330092
1.5395112e-05
0.0069822624
2.8920592e-05
0.010071451
4.037342e-05
0.012118616
4.6677647e-05
0.013328949
4.6546061e-05
0.013866468
4.0163804e-05
0.013847605
2.8766735e-05
0.013330486
1.4421766e-05
0.012272305
0.010243846
5.817238e-06
0.0026271919
1.9123792e-05
0.0069689559
3.3493351e-05
0.010057081
4.4499926e-05
0.012107609
4.9716034e-05
0.013323733
4.8383362e-05
0.013867801
4.1004792e-05
0.013854984
2.8966671e-05
0.013342524
1.4362841e-05
0.012286908
0.010258209
6.7756247e-06
0.0026204163
2.1562328e-05
0.0069541692
3.6487024e-05
0.010042156
4.7108473e-05
0.012096988
5.1467346e-05
0.013319374
4.9222707e-05
0.013870045
4.11384e-05
0.013863068
2.8727398e-05
0.013354935
1.4103677e-05
0.012301532
0.010272313
7.2691171e-06
0.0026131472
2.2857175e-05
0.0069385811
3.8041508e-05
0.010026972
4.8301503e-05
0.012086728
5.1991803e-05
0.013315684
4.9089342e-05
0.013872948
4.0567411e-05
0.01387159
2.8042393e-05
0.01336746
1.3638393e-05
0.012315936
0.010285951
7.394381e-06
0.0026057528
2.3198456e-05
0.006922777
3.8340697e-05
0.01001183
4.821834e-05
0.01207685
5.1380528e-05
0.013312521
4.8035125e-05
0.013876293
3.9317118e-05
0.013880308
2.6922285e-05
0.013379855
1.2970839e-05
0.012329888
0.010298922
7.2474612e-06
0.0025985054
2.2788497e-05
0.006907236
3.7595848e-05
0.0099970225
4.7032076e-05
0.012067414
4.9759795e-05
0.013309794
4.6145637e-05
0.013879907
3.7442421e-05
0.013889011
2.5400104e-05
0.013391898
1.2116844e-05
0.012343171
0.010311039
6.9113365e-06
0.002591594
2.1819205e-05
0.0068923281
3.6026704e-05
0.009982815
4.4938722e-05
0.012058502
4.7286353e-05
0.013307446
4.3539003e-05
0.013883655
3.5028159e-05
0.013897522
2.353194e-05
0.013403394
1.1104868e-05
0.012355598
0.010322144
6.4521827e-06
0.0025851418
2.0458944e-05
0.0068783214
3.384464e-05
0.0099694293
4.2142526e-05
0.012050204
4.4136049e-05
0.013305453
4.0357268e-05
0.013887433
3.2182519e-05
0.013905697
2.1391992e-05
0.013414184
9.9728427e-06
0.012367017
0.010332116
5.920301e-06
0.0025792215
1.8847424e-05
0.0068653942
3.1240814e-05
0.0099570359
3.8842047e-05
0.012042603
4.0490511e-05
0.013303804
3.675458e-05
0.013891169
2.9027134e-05
0.013913424
1.9065127e-05
0.013424146
8.7642036e-06
0.012377318
0.010340881
5.3527233e-06
0.0025738688
1.709575e-05
0.0068536512
2.8379552e-05
0.0099457521
3.5219257e-05
0.012035763
3.652472e-05
0.013302499
3.2884953e-05
0.013894809
2.568619e-05
0.013920623
1.6638484e-05
0.013433194
7.523093e-06
0.012386433
0.010348404
4.7760901e-06
0.0025690927
1.5289347e-05
0.0068431379
2.5396302e-05
0.0099356451
3.1432872e-05
0.012029726
3.2397809e-05
0.013301534
2.8892361e-05
0.013898315
2.2277335e-05
0.013927238
1.419449e-05
0.013441277
6.2906926e-06
0.012394337
0.010354694
4.2091585e-06
0.0025648836
1.3491968e-05
0.0068338551
2.2398667e-05
0.0099267384
2.7615452e-05
0.01202451
2.8247444e-05
0.013300902
2.4903977e-05
0.013901658
1.8905187e-05
0.013933237
1.180592e-05
0.013448376
5.1026235e-06
0.01240104
0.010359797
3.6648145e-06
0.0025612187
1.1749807e-05
0.0068257701
1.9469201e-05
0.009919019
2.3873346e-05
0.012020105
2.4187387e-05
0.013300588
2.1026478e-05
0.013904819
1.56576e-05
0.013938606
9.5331373e-06
0.0134545
3.987742e-06
0.012406586
0.010363785
3.1515813e-06
0.0025580672
1.0095131e-05
0.0068188266
1.6668834e-05
0.0099124453
2.0288294e-05
0.012016486
2.0307203e-05
0.013300569
1.7344563e-05
0.013907782
1.2603863e-05
0.013943346
7.4227196e-06
0.013459682
2.967469e-06
0.012411041
0.010366752
2.6747656e-06
0.0025553924
8.5493535e-06
0.006812952
1.4040413e-05
0.0099069542
1.6919997e-05
0.012013606
1.6673525e-05
0.013300815
1.3921233e-05
0.013910534
9.7945813e-06
0.013947473
5.5074123e-06
0.013463969
2.0560207e-06
0.012414492
0.010368808
2.2372846e-06
0.0025531551
7.1254775e-06
0.0068080638
1.1611899e-05
0.0099024678
1.3808967e-05
0.012011409
1.3332063e-05
0.013301292
1.0799068e-05
0.013913067
7.2624876e-06
0.013951009
3.8067077e-06
0.013467425
1.260709e-06
0.012417038
0.010370069
1.8403133e-06
0.0025513148
5.8301252e-06
0.006804074
9.3994017e-06
0.0098988985
1.0979728e-05
0.012009829
1.0310531e-05
0.013301961
8.0027931e-06
0.013915375
5.0246979e-06
0.013953988
2.3287315e-06
0.01347012
5.83169e-07
0.012418784
0.010370652
1.4837647e-06
0.002549831
4.6651214e-06
0.0068008926
7.4097081e-06
0.0098961539
8.4437495e-06
0.012008795
7.6215477e-06
0.013302783
5.5419279e-06
0.013917454
3.0850971e-06
0.013956444
1.0730902e-06
0.013472132
3.1025402e-08
0.012419826
0.010370683
1.1665987e-06
0.0025486644
3.6285495e-06
0.0067984307
5.6420505e-06
0.0098941404
6.2015291e-06
0.012008235
5.2647472e-06
0.01330372
3.4130538e-06
0.013919306
1.437829e-06
0.01395842
4.0287744e-08
0.01347353
-4.1117731e-07
0.012420277
0.010370272
8.8714658e-07
0.0025477773
2.7159304e-06
0.0067966019
4.0903366e-06
0.009892766
4.2458143e-06
0.01200808
3.2310387e-06
0.013304735
1.605649e-06
0.013920931
7.6641633e-08
0.013959949
-7.9398204e-07
0.013474401
-7.6901748e-07
0.012420252
0.010369503
6.4336902e-07
0.0025471339
1.9212411e-06
0.006795324
2.7452301e-06
0.0098919421
2.5648666e-06
0.01200826
1.5072862e-06
0.013305793
1.0901633e-07
0.01392233
-1.0271657e-06
0.013961085
-1.4629872e-06
0.013474837
-1.0474228e-06
0.012419837
0.010368456
4.3301621e-07
0.0025467009
1.2375251e-06
0.0067945195
1.5954707e-06
0.0098915841
1.1448067e-06
0.012008711
8.0031582e-08
0.013306857
-1.1070504e-06
0.013923517
-1.9105403e-06
0.013961888
-1.9800962e-06
0.013474906
-1.2526647e-06
0.012419109
0.010367203
2.5376602e-07
0.0025464471
6.5754023e-07
0.0067941157
6.2972134e-07
0.0098916119
-2.8438824e-08
0.012009369
-1.0801459e-06
0.013307909
-2.0799533e-06
0.013924516
-2.593378e-06
0.013962402
-2.3600629e-06
0.013474673
-1.3926095e-06
0.012418142
0.01036581
1.0337972e-07
0.0025463437
1.7432079e-07
0.0067940448
-1.6537112e-07
0.0098919516
-9.8125526e-07
0.012010185
-2.0081466e-06
0.013308936
-2.8330423e-06
0.013925341
-3.0963097e-06
0.013962665
-2.61884e-06
0.013474195
-1.4757885e-06
0.012416999
0.010364335
-2.0609554e-08
0.0025463644
-2.2132135e-07
0.0067942455
-8.0963597e-07
0.0098925399
-1.7424616e-06
0.012011118
-2.7270039e-06
0.01330992
-3.3897021e-06
0.013926004
-3.440909e-06
0.013962716
-2.7728521e-06
0.013473527
-1.5108626e-06
0.012415737
0.010362824
-1.2121428e-07
0.0025464856
-5.4018118e-07
0.0067946645
-1.3217581e-06
0.0098933215
-2.3310768e-06
0.012012127
-3.2594944e-06
0.013310849
-3.7738596e-06
0.013926518
-3.6488948e-06
0.013962591
-2.8383546e-06
0.013472717
-1.5062478e-06
0.012414405
0.010361317
-2.0122439e-07
0.0025466868
-7.9099816e-07
0.0067952542
-1.7154227e-06
0.0098942459
-2.766386e-06
0.012013178
-3.6284887e-06
0.013311711
-4.0091329e-06
0.013926899
-3.7413283e-06
0.013962323
-2.8308051e-06
0.013471806
-1.4698155e-06
0.012413044
0.010359848
-2.6290421e-07
0.0025469497
-9.8121872e-07
0.0067959725
-2.0042014e-06
0.0098952689
-3.0673379e-06
0.012014241
-3.8562045e-06
0.0133125
-4.1180973e-06
0.013927161
-3.7379767e-06
0.013961943
-2.7644097e-06
0.013470833
-1.4086178e-06
0.012411688
0.010358439
-3.0839851e-07
0.0025472581
-1.1180608e-06
0.0067967822
-2.2012657e-06
0.0098963521
-3.252178e-06
0.012015292
-3.9637876e-06
0.013313211
-4.1219006e-06
0.013927319
-3.6570049e-06
0.013961478
-2.6519515e-06
0.013469828
-1.3288891e-06
0.012410365
0.01035711
-3.3973535e-07
0.0025475978
-1.2084167e-06
0.0067976509
-2.3191671e-06
0.0098974629
-3.3381511e-06
0.012016311
-3.9709716e-06
0.013313844
-4.0399605e-06
0.013927388
-3.5147761e-06
0.013960953
-2.5047117e-06
0.013468817
-1.2360061e-06
0.012409096
0.010355874
-3.5882603e-07
0.0025479567
-1.2587923e-06
0.0067985509
-2.3697069e-06
0.0098985738
-3.3413269e-06
0.012017283
-3.8959017e-06
0.013314399
-3.889834e-06
0.013927382
-3.3258041e-06
0.013960389
-2.3324893e-06
0.013467824
-1.1345417e-06
0.012407898
0.01035474
-3.6745785e-07
0.0025483241
-1.2752611e-06
0.0067994587
-2.3638416e-06
0.0098996624
-3.2764699e-06
0.012018195
-3.7550186e-06
0.013314877
-3.6871562e-06
0.013927314
-3.1027594e-06
0.013959805
-2.1436568e-06
0.013466865
-1.0283176e-06
0.012406783
0.010353711
-3.672867e-07
0.0025486914
-1.2634349e-06
0.0068003548
-2.3116164e-06
0.0099007105
-3.1569595e-06
0.012019041
-3.5629808e-06
0.013315283
-3.4455983e-06
0.013927197
-2.8564698e-06
0.013959216
-1.9451694e-06
0.013465954
-9.2039967e-07
0.012405758
0.010352791
-3.5984071e-07
0.0025490512
-1.2284591e-06
0.0068012234
-2.2221619e-06
0.0099017042
-2.9948033e-06
0.012019813
-3.3327361e-06
0.013315621
-3.1769902e-06
0.013927041
-2.5960736e-06
0.013958635
-1.7427319e-06
0.0134651
-8.1322459e-07
0.012404829
0.010351978
-3.4651635e-07
0.0025493978
-1.1750118e-06
0.0068020519
-2.1037001e-06
0.0099026329
-2.8006682e-06
0.01202051
-3.0755842e-06
0.013315896
-2.8914501e-06
0.013926857
-2.3291995e-06
0.013958072
-1.5409523e-06
0.013464312
-7.0867136e-07
0.012403996
0.010351269
-3.2858543e-07
0.0025497263
-1.1073284e-06
0.0068028307
-1.9636029e-06
0.0099034892
-2.5840006e-06
0.012021131
-2.8013836e-06
0.013316114
-2.5976467e-06
0.013926653
-2.0622461e-06
0.013957537
-1.3436134e-06
0.013463593
-6.0823601e-07
0.012403261
0.010350661
-3.0719896e-07
0.0025500335
-1.0292147e-06
0.0068035527
-1.808438e-06
0.0099042684
-2.3531162e-06
0.012021675
-2.5186954e-06
0.013316279
-2.3030009e-06
0.013926437
-1.8006218e-06
0.013957035
-1.1538816e-06
0.013462947
-5.1318241e-07
0.01240262
0.010350148
-2.8338279e-07
0.0025503169
-9.4405648e-07
0.0068042133
-1.6439953e-06
0.0099049684
-2.1152599e-06
0.012022147
-2.2348775e-06
0.013316399
-2.0138051e-06
0.013926216
-1.5488603e-06
0.01395657
-9.7440054e-07
0.013462372
-4.2455018e-07
0.01240207
0.010349723
-2.5804301e-07
0.002550575
-8.5482402e-07
0.0068048101
-1.4753017e-06
0.0099055888
-1.8766325e-06
0.012022548
-1.956122e-06
0.013316478
-1.7352558e-06
0.013925995
-1.3106361e-06
0.013956145
-8.0728023e-07
0.013461869
-3.4319459e-07
0.012401606
0.01034938
-2.31958e-07
0.0025508069
-7.6405631e-07
0.0068053422
-1.3065956e-06
0.0099061314
-1.6423578e-06
0.012022884
-1.6874066e-06
0.013316523
-1.4713837e-06
0.013925779
-1.0886653e-06
0.013955762
-6.5397826e-07
0.013461434
-2.6964993e-07
0.012401222
0.01034911
-2.0578203e-07
0.0025510127
-6.7386646e-07
0.0068058103
-1.1413335e-06
0.0099065988
-1.416491e-06
0.012023159
-1.432509e-06
0.013316539
-1.2250545e-06
0.013925572
-8.8467532e-07
0.013955422
-5.1524916e-07
0.013461065
-2.040897e-07
0.012400911
0.010348906
-1.8005137e-07
0.0025511928
-5.8595706e-07
0.0068062162
-9.8222634e-07
0.0099069951
-1.2020776e-06
0.012023379
-1.1940696e-06
0.013316531
-9.9803197e-07
0.013925376
-6.9946725e-07
0.013955123
-3.9117457e-07
0.013460756
-1.4633873e-07
0.012400666
0.01034876
-1.5519458e-07
0.0025513479
-5.016614e-07
0.0068065627
-8.3131996e-07
0.0099073247
-1.0012831e-06
0.012023549
-9.7377812e-07
0.013316504
-7.911972e-07
0.013925193
-5.3311646e-07
0.013954865
-2.8134231e-07
0.013460505
-9.5972968e-08
0.012400481
0.010348664
-1.3154628e-07
0.0025514795
-4.2199424e-07
0.0068068531
-6.9010343e-07
0.0099075929
-8.1556582e-07
0.012023674
-7.7259228e-07
0.013316461
-6.0479045e-07
0.013925026
-3.8523734e-07
0.013954646
-1.8506437e-07
0.013460305
-5.2440127e-08
0.012400348
0.010348611
-1.0936701e-07
0.0025515889
-3.4771702e-07
0.0068070915
-5.5964314e-07
0.0099078048
-6.4587872e-07
0.01202376
-5.9100446e-07
0.013316406
-4.3872318e-07
0.013924873
-2.552866e-07
0.013954462
-1.0160817e-07
0.013460151
-1.4823555e-08
0.012400261
0.010348596
-8.8846331e-08
0.0025516777
-2.7937795e-07
0.006807282
-4.4066392e-07
0.0099079661
-4.927973e-07
0.012023813
-4.2918629e-07
0.013316342
-2.9270676e-07
0.013924737
-1.4260788e-07
0.013954312
-2.991568e-08
0.013460038
1.7293969e-08
0.012400214
0.010348614
-7.0124542e-08
0.0025517478
-2.173618e-07
0.0068074292
-3.3363921e-07
0.0099080823
-3.5662148e-07
0.012023836
-2.8709012e-07
0.013316273
-1.6628975e-07
0.013924616
-4.6286746e-08
0.013954192
3.0448949e-08
0.013459961
4.3241441e-08
0.012400201
0.010348657
-5.3277015e-08
0.0025518011
-1.6186256e-07
0.0068075378
-2.3873203e-07
0.0099081592
-2.3727069e-07
0.012023834
-1.6423676e-07
0.0133162
-5.8505702e-08
0.01392451
3.4443514e-08
0.013954099
7.9248059e-08
0.013459917
6.3209857e-08
0.012400217
0.01034872
-3.8330962e-08
0.0025518394
-1.1290848e-07
0.0068076124
-1.5581339e-07
0.0099082021
-1.3426862e-07
0.012023813
-5.9642081e-08
0.013316125
3.1700229e-08
0.013924419
9.9789372e-08
0.013954031
1.1701826e-07
0.013459899
7.7912838e-08
0.012400256
0.010348798
-2.525609e-08
0.0025518647
-7.0348432e-08
0.0068076575
-8.4434314e-08
0.0099082162
-4.6649644e-08
0.012023775
2.7898657e-08
0.013316051
1.0494874e-07
0.013924342
1.5068669e-07
0.013953985
1.45081e-07
0.013459905
8.8105079e-08
0.012400313
0.010348886
-1.3982432e-08
0.0025518787
-3.3879323e-08
0.0068076774
-2.3831076e-08
0.0099082061
2.6629666e-08
0.012023724
9.9157011e-08
0.013315978
1.6235943e-07
0.013924279
1.8886725e-07
0.013953959
1.6475838e-07
0.013459929
9.4458738e-08
0.012400384
0.010348981
-4.3915808e-09
0.0025518831
-3.0492841e-09
0.006807676
2.6703033e-08
0.0099081764
8.6297618e-08
0.012023665
1.5528513e-07
0.013315909
2.0584936e-07
0.013924228
2.1609508e-07
0.013953949
1.7739194e-07
0.013459968
9.7690945e-08
0.012400463
0.010349078
3.617767e-09
0.0025518794
2.2449402e-08
0.0068076572
6.76736e-08
0.0099081312
1.3334466e-07
0.012023599
1.9803224e-07
0.013315844
2.3723978e-07
0.013924189
2.340009e-07
0.013953952
1.8417484e-07
0.013460018
9.838913e-08
0.012400549
0.010349177
1.0134028e-08
0.0025518693
4.2911283e-08
0.0068076244
9.986131e-08
0.0099080742
1.691905e-07
0.01202353
2.2907485e-07
0.013315785
2.5823439e-07
0.01392416
2.4407279e-07
0.013953966
1.8617692e-07
0.013460076
9.7120908e-08
0.012400638
0.010349274
1.5269122e-08
0.002551854
5.8804705e-08
0.0068075809
1.2420203e-07
0.0099080088
1.9513504e-07
0.012023459
2.4990153e-07
0.01331573
2.7028444e-07
0.013924139
2.4751338e-07
0.013953989
1.8420495e-07
0.013460139
9.4223579e-08
0.012400728
0.010349368
1.9162716e-08
0.0025518349
7.0618677e-08
0.0068075294
1.4159949e-07
0.0099079379
2.1240798e-07
0.012023388
2.6188993e-07
0.01331568
2.7470652e-07
0.013924126
2.4538798e-07
0.013954018
1.7895656e-07
0.013460205
9.0036616e-08
0.012400817
0.010349458
2.1948544e-08
0.0025518129
7.8818845e-08
0.0068074726
1.5289664e-07
0.0099078638
2.2213603e-07
0.012023319
2.6627241e-07
0.013315636
2.7264211e-07
0.01392412
2.3858392e-07
0.013954052
1.7097852e-07
0.013460273
8.4752724e-08
0.012400903
0.010349543
2.3765612e-08
0.0025517892
8.387043e-08
0.0068074125
1.5892236e-07
0.0099077887
2.2541718e-07
0.012023252
2.642455e-07
0.013315597
2.6519749e-07
0.013924119
2.2796687e-07
0.01395409
1.6082058e-07
0.01346034
7.8628131e-08
0.012400985
0.010349622
2.4746938e-08
0.0025517644
8.6220161e-08
0.006807351
1.6046992e-07
0.0099077145
2.2329651e-07
0.012023189
2.569393e-07
0.013315564
2.5341755e-07
0.013924123
2.14361e-07
0.013954129
1.490012e-07
0.013460405
7.1876225e-08
0.012401063
0.010349693
2.5024447e-08
0.0025517394
8.6308137e-08
0.0068072897
1.583169e-07
0.0099076425
2.1679523e-07
0.012023131
2.4546494e-07
0.013315535
2.3833674e-07
0.01392413
1.9859534e-07
0.013954168
1.3607938e-07
0.013460468
6.4754854e-08
0.012401134
0.010349758
2.4723476e-08
0.0025517147
8.4552539e-08
0.0068072299
1.531984e-07
0.0099075738
2.0687566e-07
0.012023077
2.3086508e-07
0.013315511
2.2092989e-07
0.01392414
1.8145943e-07
0.013954208
1.225852e-07
0.013460527
5.7526997e-08
0.012401199
0.010349816
2.3958714e-08
0.0025516907
8.1339162e-08
0.0068071725
1.457907e-07
0.0099075094
1.9441778e-07
0.012023029
2.1407849e-07
0.013315491
2.0206264e-07
0.013924152
1.6364707e-07
0.013954246
1.0898745e-07
0.013460581
5.0416918e-08
0.012401258
0.010349866
2.2834142e-08
0.0025516679
7.7014203e-08
0.0068071183
1.3669433e-07
0.0099074497
1.8018698e-07
0.012022985
1.9591557e-07
0.013315476
1.8246521e-07
0.013924165
1.4572806e-07
0.013954283
9.5659612e-08
0.013460632
4.3593836e-08
0.01240131
0.01034991
2.1439709e-08
0.0025516464
7.18751e-08
0.0068070679
1.2641553e-07
0.0099073952
1.6481466e-07
0.012022947
1.7701597e-07
0.013315463
1.6269168e-07
0.01392418
1.2810602e-07
0.013954318
8.283524e-08
0.013460677
3.7153821e-08
0.012401355
0.010349947
1.9853446e-08
0.0025516266
6.61761e-08
0.0068070216
1.153801e-07
0.009907346
1.4881829e-07
0.012022913
1.5788889e-07
0.013315454
1.4315284e-07
0.013924194
1.110518e-07
0.01395435
7.0652523e-08
0.013460717
3.1138881e-08
0.012401395
0.010349978
1.8141398e-08
0.0025516085
6.0131068e-08
0.0068069796
1.0393694e-07
0.0099073022
1.326116e-07
0.012022885
1.3891845e-07
0.013315448
1.2414703e-07
0.013924209
9.4742887e-08
0.013954379
5.9172552e-08
0.013460753
2.5539388e-08
0.012401428
0.010350004
1.6361865e-08
0.0025515921
5.3923508e-08
0.006806942
9.2384134e-08
0.0099072637
1.1654079e-07
0.012022861
1.2043373e-07
0.013315444
1.0591614e-07
0.013924224
7.9317266e-08
0.013954406
4.8441461e-08
0.013460784
2.0359846e-08
0.012401457
0.010350024
1.4564196e-08
0.0025515775
4.7710741e-08
0.0068069089
8.0975518e-08
0.0099072304
1.0090404e-07
0.012022841
1.0270563e-07
0.013315442
8.8671102e-08
0.013924238
6.490506e-08
0.013954429
3.8518124e-08
0.01346081
1.5602663e-08
0.012401479
0.010350039
1.279292e-08
0.0025515647
4.1632475e-08
0.00680688
6.9939799e-08
0.0099072021
8.597311e-08
0.012022825
8.600261e-08
0.013315442
7.2628325e-08
0.013924251
5.1654245e-08
0.01395445
2.9491562e-08
0.013460832
1.1315411e-08
0.012401498
0.010350051
1.1083165e-08
0.0025515537
3.580313e-08
0.0068068553
5.9463369e-08
0.0099071785
7.1967667e-08
0.012022812
7.0533758e-08
0.013315444
5.7965187e-08
0.013924264
3.9700381e-08
0.013954469
2.1444721e-08
0.01346085
7.5348332e-09
0.012401512
0.010350058
9.4641988e-09
0.0025515442
3.0316342e-08
0.0068068345
4.9697262e-08
0.0099071591
5.9064148e-08
0.012022803
5.6467408e-08
0.013315446
4.481658e-08
0.013924275
2.9142518e-08
0.013954484
1.4455094e-08
0.013460865
4.3063552e-09
0.012401522
0.010350063
7.9505507e-09
0.0025515362
2.5225761e-08
0.0068068172
4.0728659e-08
0.0099071436
4.7358694e-08
0.012022796
4.3883743e-08
0.01331545
3.3235501e-08
0.013924286
1.9999653e-08
0.013954498
8.5153691e-09
0.013460877
1.6257864e-09
0.012401529
0.010350064
6.5620064e-09
0.0025515297
2.057942e-08
0.0068068032
3.2652122e-08
0.0099071315
3.7011598e-08
0.012022792
3.3011329e-08
0.013315454
2.3498299e-08
0.013924295
1.2562377e-08
0.013954509
3.8764266e-09
0.013460885
-3.6964233e-10
0.012401533
0.010350064
2.9712489e-09
9.3020737e-09
1.463223e-08
1.6374863e-08
1.4293016e-08
9.8374028e-09
4.8568207e-09
1.079992e-09
-6.09749e-10
)
;

boundaryField
{
    water_inlet
    {
        type            calculated;
        value           nonuniform List<scalar> 10(-0.0021750989 -0.0058428937 -0.0086267772 -0.010688211 -0.012161792 -0.013159549 -0.01377456 -0.014084001 -0.014151716 -0.014030398);
    }
    water_outlet
    {
        type            calculated;
        value           nonuniform List<scalar> 10(0.0025515267 0.0068067968 0.0099071262 0.01202279 0.013315456 0.0139243 0.013954513 0.013460889 0.012401534 0.010350063);
    }
    water_wedge1
    {
        type            wedge;
        value           nonuniform List<scalar> 
1000
(
-1.1295885e-13
-1.4267341e-13
-1.1216265e-13
-1.0631458e-13
-9.9355153e-14
-9.3389808e-14
-8.8693055e-14
-8.4954008e-14
-8.1973871e-14
-7.9489903e-14
-7.7281744e-14
-7.523924e-14
-7.326743e-14
-7.1276532e-14
-6.9181276e-14
-6.6856423e-14
-6.413536e-14
-6.081727e-14
-5.6666236e-14
-5.1411432e-14
-4.479706e-14
-3.6656181e-14
-2.707503e-14
-1.6558164e-14
-5.8673765e-15
4.0655265e-15
1.2377623e-14
1.8671396e-14
2.2894974e-14
2.529703e-14
2.6223739e-14
2.6002054e-14
2.5024014e-14
2.3520033e-14
2.1688137e-14
1.9699374e-14
1.7624952e-14
1.559e-14
1.3611861e-14
1.172856e-14
9.99992e-15
8.3919957e-15
6.9263554e-15
5.6120112e-15
4.4401449e-15
3.4060496e-15
2.501366e-15
1.7121179e-15
1.0436446e-15
4.856337e-16
8.5142271e-18
-3.6931367e-16
-6.6817818e-16
-9.1320667e-16
-1.0884585e-15
-1.2086215e-15
-1.2848448e-15
-1.3229988e-15
-1.3313899e-15
-1.3136402e-15
-1.27023e-15
-1.205298e-15
-1.1327801e-15
-1.0462403e-15
-9.5255058e-16
-8.6258834e-16
-7.7124008e-16
-6.7096457e-16
-5.777845e-16
-5.0116013e-16
-4.2076597e-16
-3.4090129e-16
-2.7222987e-16
-2.0805301e-16
-1.549091e-16
-1.046547e-16
-5.7452899e-17
-2.4606402e-17
1.215609e-18
2.6369605e-17
4.8094786e-17
6.0779693e-17
7.1151476e-17
7.6326316e-17
8.1648824e-17
8.9263425e-17
8.8721526e-17
7.874785e-17
7.9143469e-17
7.6748042e-17
7.018647e-17
6.2438681e-17
5.5778673e-17
5.2379435e-17
3.9416273e-17
3.4969906e-17
3.2273916e-17
2.9276457e-17
2.444932e-17
8.5320492e-18
-6.8081308e-13
-1.0335457e-12
-8.3928997e-13
-7.9752628e-13
-7.4939755e-13
-7.0313742e-13
-6.6536436e-13
-6.3522933e-13
-6.1093652e-13
-5.905286e-13
-5.7245008e-13
-5.5560692e-13
-5.3912645e-13
-5.2219894e-13
-5.039743e-13
-4.8343307e-13
-4.5934425e-13
-4.30187e-13
-3.9436597e-13
-3.5055497e-13
-2.9813826e-13
-2.3765302e-13
-1.7103225e-13
-1.0155427e-13
-3.3368316e-14
2.8951908e-14
8.1489066e-14
1.2214826e-13
1.5063486e-13
1.6797282e-13
1.7589148e-13
1.7634931e-13
1.7126211e-13
1.622688e-13
1.5073217e-13
1.376939e-13
1.2392852e-13
1.100425e-13
9.6444454e-14
8.3440172e-14
7.1222399e-14
5.9898882e-14
4.9546487e-14
4.0195631e-14
3.1834423e-14
2.4425641e-14
1.7936778e-14
1.231763e-14
7.5104922e-15
3.467532e-15
1.1489003e-16
-2.616903e-15
-4.8019644e-15
-6.5047276e-15
-7.7704319e-15
-8.6596643e-15
-9.2139439e-15
-9.4898981e-15
-9.5344454e-15
-9.3816771e-15
-9.0665305e-15
-8.6219099e-15
-8.0855946e-15
-7.4785451e-15
-6.8292898e-15
-6.1603811e-15
-5.4794563e-15
-4.8067578e-15
-4.1588921e-15
-3.5445783e-15
-2.9646172e-15
-2.4170147e-15
-1.9173983e-15
-1.4742388e-15
-1.0812428e-15
-7.34693e-16
-4.2840402e-16
-1.6834701e-16
4.6064662e-17
2.2400234e-16
3.6047825e-16
4.6698495e-16
5.4723546e-16
5.9689319e-16
6.2549831e-16
6.3920932e-16
6.380222e-16
6.1835312e-16
5.9042987e-16
5.5649162e-16
5.1879457e-16
4.7699834e-16
4.2945585e-16
3.8135184e-16
3.3193076e-16
2.8589977e-16
2.4954461e-16
2.1316506e-16
1.7117287e-16
9.4399687e-17
3.1339106e-12
4.8023009e-12
3.9072345e-12
3.7113882e-12
3.490057e-12
3.2689353e-12
3.0860185e-12
2.9387791e-12
2.817615e-12
2.7124766e-12
2.6152718e-12
2.5197199e-12
2.4205095e-12
2.3123568e-12
2.1894942e-12
2.0461155e-12
1.8774949e-12
1.6810994e-12
1.4574226e-12
1.2105482e-12
9.4809188e-13
6.8016743e-13
4.1759742e-13
1.7019588e-13
-5.3301986e-14
-2.4553549e-13
-4.0216056e-13
-5.2204168e-13
-6.0637332e-13
-6.5807498e-13
-6.8129436e-13
-6.8086383e-13
-6.6174874e-13
-6.2865631e-13
-5.8576993e-13
-5.3663111e-13
-4.8412791e-13
-4.3051036e-13
-3.7750075e-13
-3.2636661e-13
-2.7800233e-13
-2.3300053e-13