/*--------------------------------*- C++ -*----------------------------------*\
| =========                 |                                                 |
| \\      /  F ield         | OpenFOAM: The Open Source CFD Toolbox           |
|  \\    /   O peration     | Version:  2506                                  |
|   \\  /    A nd           | Website:  www.openfoam.com                      |
|    \\/     M anipulation  |                                                 |
\*---------------------------------------------------------------------------*/
FoamFile
{
    version     2.0;
    format      ascii;
    arch        "LSB;label=32;scalar=64";
    class       volVectorField;
    location    "23000/water";
    object      U;
}
// * * * * * * * * * * * * * * * * * * * * * * * * * * * * * * * * * * * * * //

dimensions      [0 1 -1 0 0 0 0];

internalField   nonuniform List<vector> 
1000
(
(0.25225587 -0.00012859767 1.6217804e-18)
(0.25226258 -0.00027067836 9.7156966e-19)
(0.25227485 -0.0004145054 2.3339981e-18)
(0.25228819 -0.00055572716 3.5416267e-19)
(0.25229018 -0.0006857579 3.4987219e-19)
(0.25223998 -0.00079863172 2.4750365e-20)
(0.25200713 -0.00089615194 -1.236277e-19)
(0.25115686 -0.0010460356 -3.6010506e-19)
(0.24780473 -0.0012820719 -1.4905015e-19)
(0.23308261 0.0010121611 -5.6404633e-19)
(0.25653043 -7.7330457e-05 5.9743572e-19)
(0.25653977 -0.00018903831 1.5407149e-18)
(0.25655871 -0.00029096537 2.6430509e-18)
(0.25657276 -0.00039024488 7.1986024e-19)
(0.25654377 -0.0004817504 4.3163551e-19)
(0.25636039 -0.00055898443 1.05954e-19)
(0.25570613 -0.00060536496 -2.0551213e-19)
(0.25355952 -0.00065441358 -5.3997794e-19)
(0.24574266 -0.00084724768 -2.6734298e-19)
(0.21968686 0.00025718812 -6.1349895e-19)
(0.26021787 -7.3910001e-05 -6.7454455e-19)
(0.26022468 -0.00018059836 1.0050413e-19)
(0.26023383 -0.00027741915 1.07037e-18)
(0.26021807 -0.00037159746 3.3626589e-19)
(0.26010153 -0.00045735777 1.4822038e-20)
(0.25968006 -0.00053044604 -1.9416398e-19)
(0.25840621 -0.00057093106 -2.5863349e-19)
(0.25452353 -0.00056554765 -4.1879978e-19)
(0.24186464 -0.0006198769 -4.3463089e-19)
(0.20839343 1.1252394e-05 -4.7795138e-19)
(0.26340526 -6.8946002e-05 -1.0239405e-19)
(0.26340956 -0.00017058513 -4.4533418e-19)
(0.26340597 -0.00026279234 9.53922e-19)
(0.2633478 -0.00035138375 3.0701422e-19)
(0.26310913 -0.00042951149 -7.866463e-20)
(0.26237282 -0.00049395014 -2.1008792e-19)
(0.26030372 -0.00052751031 -2.1202738e-19)
(0.25430845 -0.00049289993 -3.3712929e-19)
(0.23723183 -0.00045934304 -3.9015853e-19)
(0.19958844 -4.8876791e-05 -3.9791875e-19)
(0.26641628 -6.4388926e-05 -1.4445839e-18)
(0.26641555 -0.00015946868 4.4592405e-19)
(0.266392 -0.0002453985 4.6925236e-19)
(0.26627267 -0.00032748757 6.5219068e-19)
(0.26586989 -0.00039791744 7.937522e-20)
(0.26472853 -0.00045250638 4.5321602e-19)
(0.26164542 -0.00047360913 8.4246959e-20)
(0.25321248 -0.00041483893 -2.6292864e-19)
(0.23271015 -0.00033459379 -3.5528424e-19)
(0.19329512 -5.063331e-05 -3.7152713e-19)
(0.26927573 -6.0867437e-05 3.4596423e-19)
(0.26926716 -0.00015024309 9.0884768e-19)
(0.2692148 -0.00023070414 3.9507809e-19)
(0.26901237 -0.00030702696 4.7479516e-19)
(0.26839648 -0.00037049951 1.1989562e-19)
(0.26673519 -0.00041493189 3.0303867e-19)
(0.26236791 -0.00041871811 5.8078568e-20)
(0.25136281 -0.00033835017 -4.9265986e-20)
(0.22869801 -0.00023662943 -1.4109691e-19)
(0.18902124 -3.9494409e-05 -2.4431173e-19)
(0.27197991 -5.8057473e-05 2.9888997e-18)
(0.27196006 -0.00014287119 2.5227484e-18)
(0.27186829 -0.00021894807 4.5812472e-20)
(0.2715565 -0.00029030308 1.3528781e-20)
(0.27066608 -0.00034728918 1.0334731e-19)
(0.26833153 -0.0003806817 -2.0730388e-19)
(0.2623985 -0.00036437128 -1.6899754e-19)
(0.24902642 -0.00026852362 -7.4189354e-20)
(0.225361 -0.00016272659 5.3413192e-20)
(0.18616823 -2.8773826e-05 -1.818489e-19)
(0.27455816 -5.5861842e-05 -3.6612381e-19)
(0.2745228 -0.00013703208 2.0991681e-18)
(0.27437848 -0.0002095201 3.5721008e-19)
(0.27392441 -0.00027640485 -7.396968e-20)
(0.27267856 -0.00032682044 2.1108853e-19)
(0.26947684 -0.00034738338 1.4237486e-19)
(0.26178466 -0.00031092566 1.242835e-19)
(0.24657382 -0.00020816774 -5.361914e-20)
(0.22271522 -0.00011050021 -1.4677108e-19)
(0.18425839 -2.0836228e-05 -1.5555922e-19)
(0.27704027 -5.4085783e-05 1.7412471e-20)
(0.27698407 -0.00013225447 3.7702411e-19)
(0.27677057 -0.0002016259 1.2659466e-18)
(0.2761317 -0.00026417305 2.6900698e-19)
(0.27442311 -0.00030720589 1.6864786e-19)
(0.27014169 -0.0003129477 2.6062341e-19)
(0.26068998 -0.00025925812 1.1562567e-19)
(0.24429835 -0.00015836499 7.6252519e-20)
(0.22067584 -7.5408839e-05 3.8852775e-20)
(0.18296198 -1.5153365e-05 1.5452203e-20)
(0.27944341 -5.2555794e-05 3.1648547e-18)
(0.27935955 -0.00012814147 1.5498302e-18)
(0.27905543 -0.00019460773 8.0728663e-19)
(0.27817575 -0.00025259268 5.276648e-19)
(0.27586795 -0.00028673492 2.2277229e-19)
(0.27032642 -0.00027659272 1.4835945e-19)
(0.25933502 -0.00021094139 -9.3111121e-20)
(0.24234217 -0.00011891341 -4.2501609e-20)
(0.21912382 -5.2172874e-05 4.8224819e-21)
(0.18206596 -1.0945923e-05 -7.2165959e-20)
(0.28177654 -5.1166681e-05 1.5650619e-18)
(0.28165619 -0.0001244198 5.7860389e-19)
(0.2812333 -0.00018797317 2.8332095e-20)
(0.28003901 -0.00024077487 9.8779451e-19)
(0.27697397 -0.00026417685 2.0480463e-19)
(0.27008762 -0.00023880464 2.4552769e-19)
(0.25792269 -0.00016762398 3.8579023e-20)
(0.24073181 -8.8482074e-05 -5.2321251e-20)
(0.2179502 -3.6446333e-05 -1.2959698e-19)
(0.18143932 -7.6995351e-06 -1.2627555e-19)
(0.28404476 -4.9854746e-05 1.519881e-18)
(0.28387625 -0.00012089424 1.0237122e-18)
(0.28329739 -0.00018132922 -8.4488008e-20)
(0.28169344 -0.00022787732 5.8025028e-19)
(0.27771471 -0.000238974 2.4666855e-19)
(0.26953509 -0.00020087562 1.4158452e-20)
(0.25659139 -0.00013036515 -4.5961985e-20)
(0.23943782 -6.5171217e-05 4.5247806e-21)
(0.21706901 -2.5325301e-05 -9.3429759e-20)
(0.18100321 -5.1220667e-06 -1.0153189e-19)
(0.28625048 -4.857207e-05 1.7779928e-18)
(0.28601827 -0.00011740093 1.2038366e-18)
(0.28523427 -0.00017430202 3.358821e-20)
(0.28310493 -0.00021314209 6.9034756e-19)
(0.27809436 -0.00021129069 1.0388808e-19)
(0.2687994 -0.00016439813 -2.8868174e-19)
(0.25541093 -9.9329208e-05 -1.7232702e-19)
(0.23841401 -4.7155368e-05 -9.1899284e-20)
(0.21641538 -1.7078475e-05 -1.1678566e-19)
(0.18070891 -3.0434098e-06 -1.1559962e-19)
(0.28839354 -4.7270941e-05 1.3887726e-19)
(0.28807682 -0.00011377577 6.3490152e-19)
(0.28702342 -0.00016645994 4.7953069e-19)
(0.28424077 -0.00019602617 6.2861114e-19)
(0.27815547 -0.00018188545 -2.0799512e-20)
(0.26799599 -0.00013078982 2.1033851e-20)
(0.25440307 -7.3937134e-05 -2.9977365e-19)
(0.23761477 -3.3003649e-05 -1.80165e-19)
(0.21594074 -1.0715644e-05 -1.4210011e-19)
(0.18052448 -1.3525286e-06 -2.1003221e-19)
(0.29047097 -4.5891443e-05 1.639761e-19)
(0.29004195 -0.00010982911 2.5804324e-18)
(0.28863779 -0.00015729316 7.9931604e-19)
(0.28508023 -0.00017633865 4.2157822e-21)
(0.2779708 -0.00015188728 2.0968825e-19)
(0.26720624 -0.00010094686 1.7863008e-19)
(0.25356402 -5.3258894e-05 -1.2441673e-19)
(0.23700054 -2.1698573e-05 -2.5839811e-19)
(0.21560861 -5.6594031e-06 -2.293283e-19)
(0.18042758 3.4186915e-08 -7.2988068e-20)
(0.29247637 -4.4351519e-05 1.2584717e-18)
(0.29189831 -0.00010531336 4.62636e-19)
(0.29004631 -0.00014628207 3.096056e-19)
(0.2856247 -0.00015430652 6.1213885e-19)
(0.27762406 -0.0001225394 2.8357037e-19)
(0.26647731 -7.5147945e-05 -7.6271523e-20)
(0.25287923 -3.6357899e-05 4.0033076e-21)
(0.23653862 -1.2544387e-05 -1.3069667e-19)
(0.21539111 -1.5275246e-06 -1.4056169e-19)
(0.18040203 1.2058541e-06 8.3908813e-20)
(0.294399 -4.2542622e-05 1.6163983e-18)
(0.29362441 -9.9894529e-05 7.2677696e-19)
(0.2912191 -0.00013303032 2.21356e-19)
(0.28590172 -0.0001305453 7.3297792e-19)
(0.27719083 -9.494393e-05 6.0691975e-19)
(0.26583133 -5.3198177e-05 2.3925133e-20)
(0.25233096 -2.2452627e-05 -4.2416725e-20)
(0.23620236 -5.0201546e-06 -6.5965646e-20)
(0.2152645 1.8977181e-06 -2.0663175e-20)
(0.18043773 2.1936792e-06 -1.6972113e-19)
(0.29622247 -4.0322213e-05 1.0914423e-18)
(0.29519258 -9.3155292e-05 1.6796004e-19)
(0.29213504 -0.00011739302 6.2365797e-19)
(0.28595987 -0.00010594347 8.5955145e-19)
(0.27672819 -6.9857186e-05 5.963885e-19)
(0.26527515 -3.464933e-05 5.0369291e-19)
(0.2519011 -1.0910723e-05 1.8369354e-19)
(0.23596807 1.2320361e-06 -3.5722995e-20)
(0.21521692 4.7061874e-06 4.6512716e-20)
(0.18052214 2.9886555e-06 -7.0189603e-20)
(0.29792334 -3.7501237e-05 3.9983682e-19)
(0.29657068 -8.466035e-05 7.7638397e-19)
(0.29278918 -9.9552221e-05 8.235085e-19)
(0.285857 -8.149632e-05 7.0814846e-19)
(0.27627356 -4.7619617e-05 2.3215716e-19)
(0.26480713 -1.8984248e-05 5.5862413e-19)
(0.25157193 -1.2541675e-06 -5.5569474e-21)
(0.23582161 6.420472e-06 9.8793672e-20)
(0.21523437 6.9891188e-06 1.9936785e-21)
(0.18064614 3.6203349e-06 -1.0960837e-19)
(0.29946982 -3.3841547e-05 -7.5444428e-19)
(0.29772604 -7.4080178e-05 2.1381135e-18)
(0.29319629 -8.0019858e-05 5.5293014e-20)
(0.28564803 -5.81262e-05 -1.427878e-18)
(0.2758486 -2.8225729e-05 -2.2991238e-19)
(0.2644212 -5.6909483e-06 -1.9734213e-19)
(0.25132937 6.8555681e-06 -4.341228e-20)
(0.23575038 1.0704312e-05 3.493313e-20)
(0.21530525 8.8447184e-06 -5.6434499e-20)
(0.18080245 4.1234189e-06 3.4351103e-20)
(0.30082183 -2.9094783e-05 9.3486337e-19)
(0.29863175 -6.1332165e-05 1.4106057e-18)
(0.29338824 -5.9567287e-05 -8.4806391e-19)
(0.28537718 -3.6522917e-05 -1.4256795e-18)
(0.27546383 -1.1417767e-05 -3.5557743e-19)
(0.26410765 5.6156231e-06 -5.2132749e-19)
(0.2511654 1.3622428e-05 -1.5075229e-19)
(0.23574182 1.421888e-05 -1.3827462e-20)
(0.21542012 1.0354359e-05 5.1476038e-20)
(0.18098519 4.5261759e-06 1.9817481e-19)
(0.30193373 -2.3108642e-05 2.1963239e-18)
(0.29927338 -4.6684662e-05 1.0358594e-18)
(0.29340604 -3.9091779e-05 -2.0027414e-19)
(0.28507548 -1.7047968e-05 5.0989099e-19)
(0.27512089 3.0832169e-06 9.7337782e-19)
(0.26386445 1.5139498e-05 -1.2707512e-20)
(0.25106783 1.9209055e-05 2.5554485e-20)
(0.2357854 1.7094076e-05 2.0902198e-20)
(0.2155712 1.1580417e-05 -6.9629544e-20)
(0.18118947 4.8476385e-06 -4.0014825e-21)
(0.30276109 -1.5976808e-05 -2.7056292e-18)
(0.29965288 -3.0773055e-05 -9.1715826e-19)
(0.29329057 -1.9436287e-05 -3.8351208e-19)
(0.28476122 1.6764088e-07 -2.5973892e-19)
(0.27482457 1.5440503e-05 5.2503385e-19)
(0.26368339 2.3071254e-05 1.2798135e-19)
(0.2510265 2.3802147e-05 3.1801156e-19)
(0.2358724 1.9434185e-05 5.6412652e-20)
(0.21575199 1.2564905e-05 -1.7129094e-20)
(0.18141106 5.0990264e-06 1.1637776e-19)
(0.30327132 -8.127766e-06 2.3962735e-19)
(0.29978735 -1.4485991e-05 1.8963691e-18)
(0.29307479 -1.3053583e-06 -1.1621215e-19)
(0.28444919 1.5039606e-05 -8.8203779e-20)
(0.27457433 2.5804143e-05 -6.2120525e-19)
(0.26355616 2.9613809e-05 -3.596683e-20)
(0.25103262 2.754486e-05 -1.9902558e-19)
(0.23599543 2.1311532e-05 2.9515753e-20)
(0.21595697 1.3336196e-05 1.1318736e-19)
(0.18164629 5.2874737e-06 6.6764384e-20)
(0.30345394 -2.4226943e-07 1.2465036e-18)
(0.29970263 1.133028e-06 9.0372498e-19)
(0.29278638 1.4662457e-05 3.2407705e-19)
(0.28414893 2.7525966e-05 -7.0751267e-19)
(0.2743656 3.4336948e-05 -8.3861553e-19)
(0.26347497 3.4930102e-05 -3.8137504e-19)
(0.25107852 3.0536256e-05 -1.6601687e-19)
(0.23614811 2.27743e-05 -6.1633975e-20)
(0.2161813 1.3912713e-05 4.6447758e-20)
(0.18189181 5.4171757e-06 4.4230025e-20)
(0.3033251 6.8809642e-06 -3.7649141e-18)
(0.29943295 1.4984906e-05 -3.1672313e-18)
(0.29244689 2.7994081e-05 -1.7934502e-18)
(0.28386232 3.767682e-05 -2.2892804e-18)
(0.27419303 4.1187256e-05 -1.0407227e-18)
(0.26343258 3.9127962e-05 -7.5830996e-19)
(0.2511573 3.2836032e-05 -6.0625057e-20)
(0.23632476 2.3849034e-05 -1.231808e-19)
(0.21642058 1.4302669e-05 5.5560872e-20)
(0.18214446 5.488921e-06 1.4633354e-19)
(0.30293049 1.2606869e-05 4.2608957e-19)
(0.2990153 2.625284e-05 -1.7873254e-18)
(0.29206924 3.8508036e-05 -1.9144409e-18)
(0.28358876 4.5589979e-05 -9.3893374e-20)
(0.27405096 4.6452198e-05 5.4781168e-19)
(0.26342221 4.2267093e-05 1.3087264e-19)
(0.25126273 3.4472367e-05 1.2921541e-19)
(0.23652016 2.4543737e-05 3.6319614e-21)
(0.21667065 1.4504916e-05 9.4142074e-21)
(0.18240108 5.5003366e-06 2.4116526e-20)
(0.30233161 1.6686064e-05 4.6617488e-19)
(0.29848532 3.4600845e-05 -1.9057555e-19)
(0.29166294 4.6231671e-05 -4.9786245e-19)
(0.28332653 5.1360699e-05 3.9716309e-19)
(0.27393383 5.019566e-05 2.4409127e-19)
(0.26343756 4.4379022e-05 4.0811588e-19)
(0.25138896 3.5453249e-05 2.9934641e-19)
(0.23672935 2.4853804e-05 2.3125372e-19)
(0.21692739 1.4511797e-05 6.0513174e-20)
(0.18265838 5.4468613e-06 7.7535983e-20)
(0.30159322 1.9181913e-05 2.7051774e-18)
(0.29787657 4.0084292e-05 3.3405116e-18)
(0.29123635 5.1327467e-05 7.7013695e-19)
(0.28307384 5.5103601e-05 5.9577046e-19)
(0.27383649 5.2478851e-05 -3.8586921e-19)
(0.26347282 4.5487851e-05 6.8893506e-20)
(0.25153053 3.5780065e-05 -2.2274261e-19)
(0.2369475 2.4770762e-05 1.0515463e-19)
(0.2171866 1.4314108e-05 1.3902383e-19)
(0.18291288 5.3237137e-06 5.7272998e-20)
(0.30077404 2.0343682e-05 5.7190865e-19)
(0.29721991 4.3029537e-05 1.6807987e-18)
(0.29079787 5.4063348e-05 8.2416372e-19)
(0.28282961 5.6975326e-05 -1.6986733e-20)
(0.27375459 5.3383186e-05 -5.8623751e-20)
(0.26352281 4.5628412e-05 -3.9076113e-19)
(0.25168237 3.5461257e-05 -3.7801386e-19)
(0.23716992 2.4291477e-05 -1.1189748e-19)
(0.21744403 1.3906233e-05 -4.1727529e-20)
(0.18316092 5.1277212e-06 5.5252986e-21)
(0.2999222 2.0483422e-05 -3.8331497e-18)
(0.29654259 4.3898394e-05 -2.3036612e-18)
(0.29035624 5.4780125e-05 -1.2365697e-18)
(0.28259383 5.7181406e-05 -2.53959e-18)
(0.27368473 5.3024011e-05 -1.3934768e-18)
(0.26358306 4.4860255e-05 -8.6195023e-19)
(0.25183983 3.4524048e-05 -2.870567e-19)
(0.23739212 2.3426571e-05 -1.0634171e-19)
(0.21769546 1.3291256e-05 -7.845356e-20)
(0.18339883 4.8593225e-06 1.1359499e-19)
(0.29907423 1.9896232e-05 4.078209e-18)
(0.29586745 4.31783e-05 -3.670336e-19)
(0.2899202 5.3853738e-05 -1.0704598e-18)
(0.28236749 5.5967897e-05 3.731845e-19)
(0.27362454 5.1552958e-05 6.9075225e-19)
(0.26364988 4.3273542e-05 1.2001217e-19)
(0.25199879 3.302046e-05 1.4718727e-19)
(0.23760991 2.220506e-05 -4.1551822e-20)
(0.2179369 1.2483788e-05 5.2568015e-20)
(0.18362308 4.5235655e-06 -2.0402633e-20)
(0.29825617 1.8825616e-05 1.1414399e-18)
(0.29521264 4.1315018e-05 3.9248344e-19)
(0.28949798 5.1659703e-05 -3.6196455e-19)
(0.28215236 5.3603882e-05 8.7723669e-19)
(0.27357255 4.9150952e-05 1.101805e-18)
(0.26372034 4.0987122e-05 5.2181105e-19)
(0.25215571 3.1027373e-05 5.3097097e-19)
(0.23781959 2.0674908e-05 1.9442785e-19)
(0.21816473 1.1510543e-05 7.2653769e-20)
(0.18383055 4.1303625e-06 -4.071038e-20)
(0.29748547 1.7457468e-05 -5.257252e-19)
(0.29459169 3.8682361e-05 3.4606189e-18)
(0.28909671 4.8545659e-05 5.5337438e-19)
(0.28195054 5.0361112e-05 -4.2117806e-19)
(0.27352799 4.6015115e-05 -1.0268754e-18)
(0.26379223 3.8140129e-05 2.9039132e-20)
(0.25230768 2.8640915e-05 -1.351125e-19)
(0.238018 1.8899227e-05 1.4838812e-19)
(0.21837591 1.0407995e-05 3.998551e-20)
(0.18401874 3.6935187e-06 -1.556555e-20)
(0.29677296 1.5927292e-05 8.0830744e-19)
(0.294014 3.5576445e-05 1.6821314e-18)
(0.28872212 4.4814805e-05 4.6389772e-19)
(0.28176415 4.6496308e-05 -4.6566372e-19)
(0.27349056 4.2344274e-05 -9.5630027e-20)
(0.26386389 3.488076e-05 1.1328416e-19)
(0.25245241 2.5967913e-05 -9.6923616e-20)
(0.23820263 1.6950061e-05 -4.2163102e-20)
(0.21856814 9.2184681e-06 -3.8321947e-20)
(0.18418589 3.2291829e-06 1.6892202e-20)
(0.29612453 1.4330998e-05 -2.2529366e-18)
(0.29348544 3.222256e-05 -1.7536955e-18)
(0.28837837 4.0719153e-05 -7.3162579e-19)
(0.28159493 4.223878e-05 -1.6054825e-18)
(0.27346019 3.8326344e-05 -1.4229593e-19)
(0.26393415 3.1355155e-05 -3.0795784e-19)
(0.25258815 2.3116767e-05 1.611874e-19)
(0.23837164 1.4901527e-05 -2.264501e-20)
(0.21873982 7.9856795e-06 1.0627353e-21)
(0.18433102 2.7540201e-06 1.509749e-19)
(0.2955425 1.2735059e-05 3.4395367e-18)
(0.29300908 2.8786949e-05 7.4711575e-19)
(0.2880681 3.6460052e-05 1.0614514e-18)
(0.28144416 3.7783942e-05 1.526369e-18)
(0.27343687 3.4129508e-05 8.1894881e-19)
(0.26400216 2.7698638e-05 2.4569201e-19)
(0.2527137 2.0189842e-05 1.5597553e-19)
(0.23852382 1.2823982e-05 7.3866792e-20)
(0.21889017 6.7509552e-06 9.6463625e-20)
(0.18445394 2.2836834e-06 -1.2744106e-20)
(0.29502662 1.1184616e-05 6.6570804e-19)
(0.29258577 2.5389055e-05 9.5658383e-19)
(0.28779257 3.2192927e-05 1.5786472e-18)
(0.28131252 3.329166e-05 1.4144917e-18)
(0.27342051 2.9897377e-05 1.0059932e-18)
(0.26406733 2.4029987e-05 3.451727e-19)
(0.25282826 1.7278174e-05 1.4394164e-19)
(0.23865857 1.0779934e-05 9.2603541e-20)
(0.21901906 5.5506051e-06 1.0967116e-19)
(0.18455517 1.8317245e-06 -3.1977287e-20)
(0.29457492 9.709529e-06 1.9704109e-18)
(0.29221471 2.211237e-05 3.3289111e-18)
(0.28755187 2.8033903e-05 1.8094792e-18)
(0.28120011 2.8887888e-05 6.7190213e-19)
(0.27341088 2.5747449e-05 -3.4480554e-19)
(0.26412919 2.0448562e-05 -3.1573797e-20)
(0.25293144 1.4458498e-05 -3.6973499e-19)
(0.23877584 8.8217426e-06 -7.4483391e-21)
(0.21912699 4.4145344e-06 2.7011712e-20)
(0.18463577 1.4090499e-06 8.2903719e-23)
(0.29418418 8.3287024e-06 6.3762239e-18)
(0.2918939 1.9013193e-05 2.8972531e-18)
(0.28734516 2.4066615e-05 2.2497222e-18)
(0.28110649 2.4667974e-05 2.7346877e-18)
(0.2734076 2.1771659e-05 1.4549177e-18)
(0.26418742 1.7033396e-05 8.9750338e-19)
(0.25302314 1.1791923e-05 3.0197538e-19)
(0.238876 6.9905442e-06 2.8373982e-20)
(0.21921498 3.3656609e-06 -6.7567455e-20)
(0.18469727 1.0237358e-06 -8.9492886e-20)
(0.29385045 7.0531383e-06 6.0870416e-19)
(0.29162052 1.612738e-05 7.4579911e-19)
(0.28717087 2.0348404e-05 2.8535168e-18)
(0.28103079 2.0700618e-05 2.4477522e-18)
(0.2734101 1.8038187e-05 2.1015504e-18)
(0.26424176 1.3843665e-05 1.7860423e-18)
(0.25310352 9.3238176e-06 1.2914829e-18)
(0.23895978 5.3160782e-06 5.0551173e-19)
(0.2192844 2.4198781e-06 2.8937074e-19)
(0.18474152 6.8105997e-07 1.146457e-19)
(0.29356932 5.8881399e-06 1.2350088e-18)
(0.29139119 1.3475514e-05 2.2733855e-18)
(0.28702691 1.6915663e-05 2.4126356e-18)
(0.28097179 1.7031925e-05 2.5874813e-18)
(0.27341773 1.459396e-05 2.5393495e-18)
(0.264292 1.0920051e-05 2.3588058e-18)
(0.25317293 7.0845422e-06 1.5050461e-18)
(0.2390282 3.8171556e-06 9.5905552e-19)
(0.21933692 1.5864074e-06 5.625061e-19)
(0.18477055 3.8373168e-07 2.8553658e-19)
(0.29333616 4.834906e-06 2.6994085e-18)
(0.29120222 1.106685e-05 3.4111334e-18)
(0.28691084 1.378842e-05 4.1385562e-18)
(0.28092802 1.3689441e-05 5.0877041e-18)
(0.27342972 1.1467712e-05 4.1059374e-18)
(0.264338 8.2869789e-06 2.2978278e-18)
(0.2532319 5.0911324e-06 1.5945511e-18)
(0.23908247 2.5029299e-06 1.0649236e-18)
(0.21937436 8.6868816e-07 8.6930811e-19)
(0.18478646 1.3230699e-07 5.7584531e-19)
(0.29314628 3.8917271e-06 2.1062695e-18)
(0.29104977 8.9023532e-06 2.0818041e-18)
(0.28682004 1.0974122e-05 3.5680855e-18)
(0.28089786 1.0685796e-05 3.62444e-18)
(0.27344525 8.6730564e-06 2.8850773e-18)
(0.26437969 5.9550376e-06 2.0537584e-18)
(0.25328104 3.348981e-06 1.4928774e-18)
(0.23912391 1.373804e-06 1.0940903e-18)
(0.2193986 2.7032964e-07 8.8280935e-19)
(0.18479134 -7.0434163e-08 6.4023597e-19)
(0.29299508 3.0547278e-06 1.5439841e-18)
(0.29092999 6.9766884e-06 4.6054484e-19)
(0.28675178 8.4702434e-06 -1.5538006e-21)
(0.28087965 8.0213034e-06 6.0795858e-19)
(0.27346353 6.210657e-06 2.1345952e-18)
(0.26441703 3.9227427e-06 1.9101549e-18)
(0.25332108 1.8541043e-06 1.6443089e-18)
(0.2391539 4.2876828e-07 1.2418385e-18)
(0.21941119 -2.1409127e-07 7.3540981e-19)
(0.18478758 -2.2872112e-07 4.9928869e-19)
(0.29287811 2.3186623e-06 7.3583467e-19)
(0.2908391 5.2803075e-06 1.9155187e-18)
(0.28670335 6.2673042e-06 2.8301581e-18)
(0.2808717 5.687483e-06 1.7998334e-18)
(0.27348377 4.0720479e-06 1.2747047e-18)
(0.26445005 2.181203e-06 1.9929962e-18)
(0.25335275 6.0103286e-07 1.8218125e-18)
(0.23917354 -3.4190282e-07 1.4530384e-18)
(0.21941457 -6.0339771e-07 1.2580444e-18)
(0.18477671 -3.5379278e-07 7.5097743e-19)
(0.29279115 1.6775546e-06 1.6071333e-19)
(0.2907735 3.8012132e-06 2.6431674e-18)
(0.28667213 4.3515812e-06 2.2118265e-18)
(0.28087239 3.6705527e-06 1.7740617e-18)
(0.27350525 2.2442256e-06 1.4152262e-18)
(0.26447879 7.20922e-07 1.6117511e-18)
(0.25337659 -4.2498115e-07 1.5513675e-18)
(0.23918482 -9.6160252e-07 1.4713643e-18)
(0.21941032 -9.1175709e-07 1.1969981e-18)
(0.1847602 -4.505707e-07 8.8697951e-19)
(0.29273022 1.1250366e-06 1.9687645e-18)
(0.29072976 2.5259287e-06 2.4286912e-18)
(0.2866556 2.7067559e-06 2.6104234e-18)
(0.28088015 1.9541918e-06 3.9369356e-18)
(0.27352726 7.1401296e-07 3.5534712e-18)
(0.26450319 -4.768206e-07 2.0957851e-18)
(0.253394 -1.2517465e-06 1.623207e-18)
(0.23918902 -1.4497435e-06 1.568924e-18)
(0.2193999 -1.1459141e-06 1.2212138e-18)
(0.1847394 -5.2080609e-07 1.0690783e-18)
(0.29269162 6.5460138e-07 1.3497397e-18)
(0.29070466 1.4404958e-06 2.812802e-18)
(0.28665139 1.316519e-06 3.6629527e-18)
(0.28089348 5.2287467e-07 3.9287035e-18)
(0.27354904 -5.4067133e-07 2.8310562e-18)
(0.2645239 -1.4430409e-06 2.2845748e-18)
(0.25340577 -1.9031753e-06 1.7885302e-18)
(0.2391873 -1.8189334e-06 1.5505089e-18)
(0.21938463 -1.3125544e-06 1.3377773e-18)
(0.18471557 -5.6691691e-07 1.0745685e-18)
(0.29267189 2.6018249e-07 -8.1529193e-19)
(0.29069521 5.3203321e-07 1.4429693e-18)
(0.28665722 1.6380762e-07 5.0712472e-19)
(0.28091094 -6.4860722e-07 9.0958717e-19)
(0.2735705 -1.5530318e-06 1.9552624e-18)
(0.26454118 -2.2049715e-06 1.8968599e-18)
(0.25341264 -2.3966756e-06 1.7788331e-18)
(0.23918075 -2.0815258e-06 1.4608008e-18)
(0.21936572 -1.4196744e-06 1.2571097e-18)
(0.18468979 -5.9201229e-07 1.0008266e-18)
(0.29266786 -6.4682411e-08 2.7700321e-18)
(0.2906986 -2.1520346e-07 1.7882518e-18)
(0.28667108 -7.763458e-07 2.1036471e-18)
(0.28093165 -1.5927905e-06 1.2678133e-18)
(0.27359126 -2.351356e-06 9.1998491e-19)
(0.26455525 -2.783432e-06 1.8764133e-18)
(0.25341533 -2.7494387e-06 1.9077858e-18)
(0.23917036 -2.2508955e-06 1.5676862e-18)
(0.21934425 -1.4757741e-06 1.48396e-18)
(0.18466299 -5.9936954e-07 1.0766042e-18)
(0.29267663 -3.2801561e-07 1.7758624e-18)
(0.29071239 -8.2041153e-07 1.2745438e-18)
(0.28669132 -1.5303387e-06 1.5405173e-18)
(0.28095459 -2.3350239e-06 1.2465209e-18)
(0.27361099 -2.9577292e-06 1.0755075e-18)
(0.26456636 -3.1990241e-06 1.3599988e-18)
(0.25341451 -2.979484e-06 1.6067801e-18)
(0.23915703 -2.340622e-06 1.5321096e-18)
(0.21932114 -1.4892056e-06 1.2770501e-18)
(0.18463596 -5.9216083e-07 1.00093e-18)
(0.29269572 -5.3725411e-07 -1.4977395e-19)
(0.29073446 -1.3000941e-06 1.2015276e-18)
(0.28671639 -2.1183733e-06 1.7471544e-18)
(0.28097887 -2.896891e-06 1.0956535e-18)
(0.27362943 -3.3942485e-06 1.471053e-18)
(0.2645748 -3.4727274e-06 1.6299125e-18)
(0.2534108 -3.1046284e-06 1.4746038e-18)
(0.23914159 -2.3637658e-06 1.6224553e-18)
(0.21929719 -1.4678638e-06 1.4225759e-18)
(0.18460932 -5.7335718e-07 1.0964456e-18)
(0.29272289 -6.9835939e-07 2.8784055e-18)
(0.29076287 -1.6680657e-06 3.0292067e-18)
(0.28674491 -2.558944e-06 2.3914863e-18)
(0.28100375 -3.2996309e-06 1.2484563e-18)
(0.27364643 -3.6827914e-06 3.5546642e-19)
(0.26458083 -3.624875e-06 1.5529561e-18)
(0.25340479 -3.1417684e-06 1.5902743e-18)
(0.23912471 -2.332474e-06 1.6578873e-18)
(0.21927306 -1.41896e-06 1.600622e-18)
(0.18458359 -5.4563654e-07 1.2200108e-18)
(0.29275616 -8.1699543e-07 2.4576522e-18)
(0.29079593 -1.9374562e-06 2.7516114e-18)
(0.28677568 -2.8699545e-06 4.0194197e-18)
(0.28102861 -3.5638799e-06 2.2152763e-18)
(0.27366187 -3.8443696e-06 2.1194427e-18)
(0.26458475 -3.6746823e-06 8.0868875e-19)
(0.253397 -3.1065922e-06 1.47024e-18)
(0.23910703 -2.2578147e-06 1.4502326e-18)
(0.2192493 -1.34895e-06 1.2382475e-18)
(0.18455913 -5.1137581e-07 1.1612279e-18)
(0.29279379 -8.9850906e-07 1.1691039e-18)
(0.29083216 -2.1207444e-06 3.2644724e-18)
(0.28680769 -3.0685172e-06 5.6868722e-18)
(0.28105292 -3.709277e-06 3.6767033e-18)
(0.27367569 -3.8987553e-06 2.2571826e-18)
(0.26458684 -3.6399642e-06 1.4486642e-18)
(0.25338792 -3.0133915e-06 1.5411463e-18)
(0.23908904 -2.1496752e-06 1.5029322e-18)
(0.21922632 -1.2634856e-06 1.436197e-18)
(0.18453624 -4.7262989e-07 1.2151639e-18)
(0.29283426 -9.479249e-07 4.8862031e-19)
(0.29087027 -2.2296965e-06 1.2028081e-18)
(0.28684007 -3.1707723e-06 2.14806e-19)
(0.28107628 -3.7542283e-06 2.6178453e-18)
(0.27368789 -3.864268e-06 1.8009692e-18)
(0.26458738 -3.5369755e-06 2.4079957e-18)
(0.25337794 -2.8749723e-06 1.6968375e-18)
(0.23907117 -2.0167442e-06 1.5674392e-18)
(0.21920447 -1.1674358e-06 1.4591913e-18)
(0.18451509 -4.3114459e-07 1.2624642e-18)
(0.29287627 -9.69933e-07 1.795828e-19)
(0.29090917 -2.275307e-06 2.1097563e-19)
(0.28687208 -3.1917588e-06 1.9708645e-19)
(0.28109838 -3.7157474e-06 1.666663e-18)
(0.27369849 -3.7576295e-06 1.8552857e-18)
(0.26458661 -3.3803153e-06 2.4433409e-18)
(0.25336745 -2.7026192e-06 1.9866697e-18)
(0.23905378 -1.866515e-06 1.696377e-18)
(0.219184 -1.0649074e-06 1.5175538e-18)
(0.18449581 -3.8836726e-07 1.3099592e-18)
(0.29291873 -9.6887786e-07 1.0310636e-18)
(0.29094795 -2.2677536e-06 1.4680911e-18)
(0.28690316 -3.1453278e-06 5.7178791e-19)
(0.28111898 -3.6093535e-06 4.9539155e-19)
(0.27370757 -3.5938775e-06 5.5559406e-19)
(0.2645848 -3.1828747e-06 1.3171983e-18)
(0.25335673 -2.5060802e-06 1.6046369e-18)
(0.23903712 -1.7052967e-06 1.5572146e-18)
(0.21916507 -9.5925985e-07 1.5839539e-18)
(0.18447845 -3.4545396e-07 1.2998426e-18)
(0.2929607 -9.4875953e-07 2.3416838e-18)
(0.29098586 -2.2163864e-06 2.5429194e-18)
(0.28693284 -3.044115e-06 3.4483834e-18)
(0.28113792 -3.4490483e-06 1.4408151e-18)
(0.27371519 -3.3863747e-06 2.3126822e-18)
(0.26458216 -2.9558903e-06 8.6716522e-19)
(0.25334606 -2.2936533e-06 1.1916629e-18)
(0.23902142 -1.5383052e-06 1.2562341e-18)
(0.21914779 -8.5316979e-07 1.2637669e-18)
(0.18446301 -3.0329433e-07 1.1754938e-18)
(0.29300145 -9.1324036e-07 2.4612121e-18)
(0.29102229 -2.1297416e-06 2.6381879e-18)
(0.28696075 -2.8995663e-06 4.9642844e-18)
(0.28115512 -3.2473682e-06 2.9648903e-18)
(0.27372146 -3.1468973e-06 2.4965668e-18)
(0.26457888 -2.7090697e-06 1.8091924e-18)
(0.25333565 -2.0723365e-06 1.5943624e-18)
(0.23900683 -1.3698077e-06 1.4356027e-18)
(0.21913223 -7.4873776e-07 1.4120383e-18)
(0.18444947 -2.6256014e-07 1.1838294e-18)
(0.29304036 -8.6565095e-07 1.1972821e-18)
(0.29105676 -2.0155657e-06 1.4634181e-18)
(0.28698666 -2.7219912e-06 -3.4390026e-19)
(0.28117053 -3.0154778e-06 1.6122467e-18)
(0.27372649 -2.8857791e-06 2.3416082e-18)
(0.26457516 -2.4507818e-06 2.2135318e-18)
(0.25332565 -1.8480356e-06 1.7930514e-18)
(0.23899344 -1.2033081e-06 1.7369622e-18)
(0.21911839 -6.4761363e-07 1.4465868e-18)
(0.18443776 -2.2374412e-07 1.1635017e-18)
(0.29307698 -8.0901283e-07 1.9817638e-18)
(0.29108893 -1.880864e-06 1.8331734e-18)
(0.28701038 -2.520642e-06 8.176498e-19)
(0.28118414 -2.7632926e-06 1.9196187e-18)
(0.2737304 -2.6120845e-06 2.5343875e-18)
(0.26457114 -2.1882675e-06 2.4902512e-18)
(0.25331621 -1.6257909e-06 1.9186257e-18)
(0.23898132 -1.0417633e-06 1.8542621e-18)
(0.21910625 -5.5117419e-07 1.5454777e-18)
(0.18442779 -1.8724545e-07 1.2420719e-18)
(0.29311098 -7.4602532e-07 1.1865959e-18)
(0.29111855 -1.7318984e-06 1.2942938e-18)
(0.28703183 -2.3037382e-06 9.9088627e-19)
(0.28119601 -2.4995311e-06 1.5202338e-18)
(0.2737333 -2.333684e-06 4.0775687e-19)
(0.26456696 -1.9277325e-06 1.7805269e-18)
(0.25330742 -1.4098736e-06 1.8672173e-18)
(0.23897048 -8.876622e-07 1.780179e-18)
(0.21909575 -4.6057744e-07 1.6730634e-18)
(0.18441947 -1.5338714e-07 1.3323646e-18)
(0.29314212 -6.7907144e-07 5.2755395e-20)
(0.29114546 -1.5741905e-06 1.520679e-18)
(0.28705095 -2.0784724e-06 2.5085716e-18)
(0.28120619 -2.2317334e-06 1.442661e-18)
(0.27373532 -2.0572847e-06 1.5147658e-18)
(0.26456274 -1.6743807e-06 1.1606835e-18)
(0.25329934 -1.2038104e-06 1.7194105e-18)
(0.23896092 -7.4304158e-07 1.7319645e-18)
(0.21908682 -3.7678262e-07 1.4621552e-18)
(0.18441266 -1.2243552e-07 1.2827044e-18)
(0.2931703 -6.1020189e-07 1.3986823e-18)
(0.29116961 -1.4124944e-06 3.1197374e-18)
(0.28706779 -1.850976e-06 4.6687996e-18)
(0.28121478 -1.9662185e-06 2.4641324e-18)
(0.27373657 -1.7883813e-06 2.1148339e-18)
(0.26455857 -1.4323555e-06 1.8434011e-18)
(0.25329201 -1.010312e-06 1.8125244e-18)
(0.23895261 -6.0940491e-07 1.701471e-18)
(0.21907936 -3.0047927e-07 1.7039193e-18)
(0.18440724 -9.4576949e-08 1.3162674e-18)
(0.29319545 -5.411361e-07 2.541649e-18)
(0.291191 -1.2507855e-06 2.2130947e-18)
(0.2870824 -1.6262982e-06 8.6875617e-19)
(0.2812219 -1.7080618e-06 2.5263828e-18)
(0.27373717 -1.5312294e-06 2.8091147e-18)
(0.26455453 -1.2046966e-06 2.2544919e-18)
(0.25328544 -8.3120916e-07 2.036871e-18)
(0.23894549 -4.8764028e-07 1.7352051e-18)
(0.21907324 -2.3200206e-07 1.6397721e-18)
(0.18440306 -6.9880428e-08 1.3294439e-18)
(0.2932176 -4.73278e-07 9.4702394e-20)
(0.29120967 -1.0922925e-06 9.9722906e-19)
(0.28709488 -1.4084515e-06 6.698938e-19)
(0.28122765 -1.4611544e-06 2.5600484e-18)
(0.27373723 -1.2889087e-06 2.6961598e-18)
(0.26455069 -9.9340193e-07 2.4579817e-18)
(0.25327965 -6.6749932e-07 2.2348168e-18)
(0.2389395 -3.780426e-07 1.9699357e-18)
(0.21906836 -1.7132635e-07 1.6488524e-18)
(0.18439997 -4.8291006e-08 1.3812421e-18)
(0.29323683 -4.0774907e-07 -8.4399053e-19)
(0.29122573 -9.3956748e-07 1.3872624e-18)
(0.28710536 -1.2005154e-06 4.8930316e-19)
(0.28123218 -1.2283413e-06 1.263848e-18)
(0.27373684 -1.0634902e-06 9.3354596e-19)
(0.26454709 -7.9960179e-07 1.7768294e-18)
(0.25327461 -5.1950285e-07 1.8914831e-18)
(0.23893455 -2.804337e-07 1.8397113e-18)
(0.21906459 -1.1813474e-07 1.7427662e-18)
(0.18439784 -2.9647194e-08 1.3845106e-18)
(0.29325327 -3.4542216e-07 2.6239919e-18)
(0.29123932 -7.9457531e-07 3.249137e-18)
(0.28711399 -1.0047799e-06 4.0743056e-18)
(0.2812356 -1.0116148e-06 1.7594344e-18)
(0.27373609 -8.562575e-07 2.3020863e-18)
(0.26454375 -6.2378638e-07 1.4818105e-18)
(0.25327028 -3.8708009e-07 1.687453e-18)
(0.23893056 -1.9433705e-07 1.6461329e-18)
(0.21906181 -7.1929937e-08 1.461427e-18)
(0.18439655 -1.3711791e-08 1.3017471e-18)
(0.29326707 -2.8697788e-07 2.9508149e-18)