/*--------------------------------*- C++ -*----------------------------------*\
| =========                 |                                                 |
| \\      /  F ield         | OpenFOAM: The Open Source CFD Toolbox           |
|  \\    /   O peration     | Version:  2506                                  |
|   \\  /    A nd           | Website:  www.openfoam.com                      |
|    \\/     M anipulation  |                                                 |
\*---------------------------------------------------------------------------*/
FoamFile
{
    version     2.0;
    format      ascii;
    arch        "LSB;label=32;scalar=64";
    class       volScalarField;
    location    "15000/rock";
    object      T;
}
// * * * * * * * * * * * * * * * * * * * * * * * * * * * * * * * * * * * * * //

dimensions      [0 0 0 1 0 0 0];

internalField   nonuniform List<scalar> 
16000
(
317.74597
306.97661
301.15554
297.52891
295.06557
293.29255
291.96198
290.93133
290.11286
289.44966
288.90324
288.44667
288.0606
287.73076
287.44643
287.1994
286.9833
286.79308
286.62476
286.47508
286.34141
286.22159
286.11381
286.01658
285.92863
285.84888
285.77642
285.71047
285.65034
285.59543
285.54523
285.49925
285.45708
285.41833
285.3826
285.34952
285.31867
285.28957
285.26155
285.23352
320.43057
309.70194
303.4881
299.50067
296.75188
294.75651
293.25096
292.08044
291.1484
290.39165
289.76718
289.24475
288.80255
288.42444
288.09828
287.81474
287.56658
287.34806
287.15461
286.98253
286.82882
286.691
286.56701
286.45513
286.3539
286.26211
286.1787
286.10277
286.03354
285.97032
285.91252
285.85959
285.81104
285.76643
285.72533
285.6873
285.6519
285.61859
285.58672
285.55541
321.96509
311.70953
305.41234
301.22802
298.2825
296.11585
294.46651
293.17619
292.14403
291.30308
290.60723
290.02383
289.52915
289.10556
288.73972
288.42137
288.14249
287.89674
287.67904
287.4853
287.31214
287.15682
287.01703
286.89085
286.77666
286.67308
286.57894
286.49323
286.41507
286.34369
286.27842
286.21866
286.16387
286.11354
286.0672
286.02438
285.9846
285.94734
285.91201
285.87792
322.94844
313.21967
306.99527
302.72897
299.66008
297.36853
295.60544
294.21533
293.09684
292.18141
291.42124
290.78209
290.23886
289.77281
289.36964
289.01832
288.7102
288.43842
288.19745
287.98282
287.79088
287.61861
287.46348
287.32339
287.19657
287.08149
286.97688
286.8816
286.7947
286.71533
286.64276
286.57632
286.51541
286.4595
286.40806
286.36061
286.31665
286.27567
286.23715
286.20054
323.63952
314.39025
308.30677
304.03144
300.89476
298.51737
296.66757
295.19658
294.00517
293.02498
292.20765
291.51812
290.93045
290.42509
289.98708
289.60477
289.26899
288.97244
288.70924
288.4746
288.26459
288.07596
287.906
287.75244
287.61335
287.48709
287.37226
287.26766
287.17223
287.08506
287.00535
286.93239
286.86552
286.80416
286.74777
286.69585
286.64788
286.60338
286.56187
286.52292
324.15991
315.32559
309.40637
305.16522
302.00044
299.56835
297.65505
296.12025
294.8685
293.83292
292.96547
292.23093
291.60296
291.06155
290.59125
290.17999
289.8182
289.49824
289.21391
288.96017
288.73285
288.52851
288.34426
288.17768
288.02671
287.88961
287.76487
287.65119
287.54746
287.45269
287.36603
287.2867
287.21402
287.14738
287.08619
287.02994
286.97812
286.93026
286.88592
286.84472
324.57188
316.09359
310.3409
306.15786
302.99215
300.52925
298.57164
296.98792
295.68725
294.60503
293.69421
292.9199
292.25574
291.68152
291.18153
290.74341
290.35732
290.01533
289.71102
289.43913
289.1953
288.97591
288.77794
288.59883
288.4364
288.28881
288.15446
288.03199
287.92019
287.81804
287.72461
287.6391
287.56077
287.48899
287.42316
287.36273
287.30721
287.25612
287.20907
287.1657
324.91013
316.73903
311.14595
307.03311
303.88446
301.40853
299.42205
297.80205
296.46257
295.3417
294.39383
293.58476
292.88839
292.28456
291.75746
291.29457
290.88589
290.52329
290.20018
289.91111
289.6516
289.41787
289.20676
289.01562
288.84217
288.68447
288.54084
288.40986
288.29025
288.18093
288.08094
287.98942
287.90562
287.82886
287.75852
287.69405
287.63495
287.58077
287.5311
287.48562
325.19552
317.29211
311.84831
307.81075
304.69062
302.21462
300.21142
298.56567
297.19614
296.04378
295.06467
294.22553
293.50076
292.8704
292.31871
291.83314
291.40357
291.02179
290.68106
290.37582
290.10146
289.8541
289.63047
289.42783
289.2438
289.07637
288.92381
288.78461
288.65745
288.5412
288.43485
288.33752
288.24841
288.16682
288.09212
288.02375
287.9612
287.90402
287.85182
287.80428
325.4414
317.77379
312.46815
308.50688
305.42232
302.95551
300.94499
299.2821
297.88999
296.71246
295.70735
294.84247
294.09288
293.43895
292.86512
292.35888
291.91011
291.51055
291.15339
290.83299
290.54463
290.28436
290.04884
289.83523
289.64108
289.46434
289.30319
289.15607
289.02163
288.89869
288.7862
288.68324
288.58899
288.50273
288.42382
288.35167
288.28578
288.2257
288.17103
288.12147
325.65677
318.19902
313.02081
309.13458
306.08963
303.63849
301.62783
299.95475
298.54636
297.34914
296.32272
295.43608
294.66498
293.99026
293.39661
292.87167
292.40535
291.9894
291.61699
291.28241
290.98091
290.70847
290.46167
290.23763
290.03384
289.84818
289.67879
289.52408
289.38264
289.25325
289.13483
289.02643
288.92722
288.83645
288.75346
288.67766
288.60854
288.54564
288.48858
288.43704
325.84799
318.57873
313.51806
309.70443
306.70115
304.27011
302.26474
300.58702
299.16759
297.9554
296.91182
296.00697
295.21742
294.52451
293.91325
293.37146
292.88919
292.4582
292.07168
291.72392
291.41012
291.12623
290.86879
290.63486
290.4219
290.22774
290.05049
289.88849
289.74032
289.60473
289.4806
289.36697
289.26297
289.16784
289.08091
289.00158
288.92933
288.86369
288.80429
288.7508
326.01966
318.9211
313.96907
310.225
307.26413
304.85615
302.8601
301.18214
299.756
298.53288
297.47575
296.5559
295.75068
295.04198
294.41518
293.85832
293.3616
292.91688
292.51738
292.1574
291.83213
291.53751
291.27006
291.02678
290.80513
290.60288
290.41812
290.24916
290.09455
289.953
289.82339
289.70471
289.5961
289.49677
289.40603
289.32329
289.248
289.17971
289.11803
289.06263
326.17524
319.23239
314.38104
310.70328
307.78474
305.40169
303.41794
301.7432
300.31389
299.08324
298.01572
297.0837
296.26532
295.54304
294.9026
294.33234
293.82262
293.36542
292.95402
292.58276
292.24684
291.9422
291.66535
291.41327
291.18339
290.97347
290.78156
290.60597
290.4452
290.29795
290.16307
290.03955
289.92649
289.82311
289.7287
289.64265
289.56443
289.49356
289.42965
289.37237
326.3174
319.51749
314.75974
311.14502
308.26816
305.91116
303.94185
302.27302
300.84344
299.60813
298.53293
297.59124
296.76196
296.0281
295.37581
294.79371
294.27235
293.80385
293.38159
292.99995
292.65418
292.34022
292.05456
291.79422
291.55658
291.3394
291.14071
290.9588
290.79215
290.63944
290.49952
290.37135
290.25402
290.14674
290.04879
289.95955
289.87848
289.80511
289.73902
289.67989
326.44819
319.78026
315.1098
311.55496
308.71882
306.38841
304.43507
302.77423
301.34672
300.10915
299.02861
298.07944
297.24127
296.49765
295.83513
295.24263
294.71091
294.23225
293.80011
293.40897
293.05411
292.73149
292.43764
292.16954
291.92461
291.70058
291.49547
291.30755
291.1353
290.97739
290.83264
290.70002
290.57859
290.46756
290.3662
290.27388
290.19005
290.11424
290.04603
289.98508
326.56926
320.0238
315.43501
311.93702
309.14046
306.8368
304.90047
303.24921
301.82565
300.58783
299.50394
298.54921
297.70393
296.95219
296.28093
295.67937
295.13848
294.65071
294.20965
293.80984
293.44662
293.116
292.81452
292.53918
292.28741
292.05692
291.84573
291.65212
291.47456
291.31169
291.16234
291.02545
290.9001
290.78546
290.68081
290.58552
290.49902
290.42084
290.35056
290.28782
326.68194
320.25063
315.73848
312.29451
309.53627
307.25925
305.34061
303.70014
302.28204
301.04562
299.96008
299.00145
298.15065
297.39226
296.71361
296.10421
295.55527
295.05938
294.61027
294.20258
293.83172
293.49372
293.18517
292.90309
292.64491
292.40835
292.19145
291.99246
291.80985
291.64226
291.48852
291.34756
291.21844
291.10034
290.99253
290.89436
290.80529
290.7248
290.65249
290.588
326.7873
320.46282
316.02282
312.63022
309.90899
307.6583
305.75777
304.12898
302.71754
301.48389
300.39814
299.43704
298.58212
297.8184
297.13358
296.51747
295.96149
295.45842
295.0021
294.58728
294.20944
293.86466
293.54957
293.26123
292.99707
292.75483
292.53254
292.32847
292.14108
291.96903
291.8111
291.66625
291.53353
291.41211
291.30126
291.20033
291.10875
291.02604
290.95175
290.88553
326.88625
320.6621
316.29019
312.94651
310.26099
308.0362
306.15397
304.5375
303.13368
301.90393
300.81918
299.85686
298.99903
298.23114
297.54127
296.91946
296.35739
295.848
295.38526
294.96401
294.57982
294.22885
293.90774
293.61359
293.34386
293.09631
292.86897
292.66011
292.46821
292.29191
292.13001
291.98146
291.8453
291.7207
291.60693
291.50333
291.40934
291.32445
291.24823
291.18031
326.97951
320.84991
316.54244
313.24538
310.5943
308.39488
306.53099
304.92731
303.53183
302.3069
301.22419
300.26172
299.40205
298.63105
297.9371
297.31054
296.74325
296.22832
295.75988
295.33288
294.94295
294.58632
294.25968
293.96017
293.68527
293.43276
293.20069
292.98733
292.79118
292.61086
292.44519
292.29311
292.15367
292.02603
291.90945
291.80329
291.70696
291.61996
291.54185
291.47227
327.0677
321.02747
316.78112
313.52858
310.91069
308.73606
306.89045
305.29985
303.91329
302.69393
301.61411
300.65241
299.79184
299.01864
298.32151
297.69105
297.11931
296.59959
296.12614
295.694
295.2989
294.93712
294.60543
294.30098
294.02129
293.76416
293.52767
293.3101
293.10993
292.92582
292.75658
292.60114
292.45857
292.32802
292.20876
292.10012
292.00153
291.91249
291.83255
291.76133
327.15135
321.19582
317.00757
313.79759
311.2117
309.06126
307.23375
305.65642
304.27921
303.06603
301.98983
301.02968
300.16902
299.39444
298.69493
298.06131
297.48587
296.96204
296.48419
296.0475
295.64776
295.28132
294.94501
294.63603
294.35192
294.09051
293.8499
293.62837
293.42444
293.23675
293.06413
292.90551
292.75996
292.62663
292.50479
292.39377
292.29301
292.20198
292.12024
292.04741
327.2309
321.35584
317.22296
314.05372
311.49868
309.3718
307.56218
305.9982
304.63066
303.42415
302.35216
301.39423
300.53419
299.75895
299.05777
298.4217
297.8432
297.31587
296.83422
296.39351
295.98963
295.619
295.2785
294.96537
294.67718
294.41181
294.16736
293.94214
293.73467
293.54362
293.3678
293.20616
293.05777
292.92179
292.79748
292.68418
292.58131
292.48835
292.40487
292.33046
327.30672
321.50831
317.42827
314.29809
311.77282
309.66887
307.87687
306.32625
304.96861
303.76914
302.70187
301.74674
300.88793
300.11265
299.41043
298.77253
298.19158
297.66133
297.17641
296.73218
296.32463
295.95024
295.60594
295.28902
294.9971
294.72806
294.48005
294.25139
294.04061
293.84639
293.66755
293.50306
293.35198
293.21347
293.08679
292.97129
292.86639
292.77156
292.68637
292.61042
327.37914
321.65389
317.62439
314.53169
312.03516
309.95352
308.17884
306.64153
305.29394
304.10183
303.03967
302.08782
301.23077
300.45603
299.75333
299.11415
298.53129
297.99863
297.51093
297.06366
296.65287
296.27512
295.9274
295.60704
295.31169
295.03929
294.78797
294.55611
294.34223
294.14504
293.96337
293.79617
293.64253
293.50161
293.37267
293.25506
293.14819
293.05156
292.9647
292.88723
327.44845
321.79316
317.81208
314.75541
312.28664
310.22668
308.469
306.94492
305.60747
304.42294
303.36623
302.41807
301.56324
300.78951
300.08684
299.44687
298.86259
298.32801
297.83799
297.3881
296.97448
296.59375
296.24295
295.91948
295.62101
295.3455
295.09114
294.8563
294.63954
294.43956
294.25521
294.08546
293.92939
293.78618
293.65508
293.53544
293.42669
293.3283
293.23982
293.16086
327.5149
321.92662
317.992
314.97002
312.52806
310.48921
308.74818
307.2372
305.90993
304.73315
303.68217
302.73803
301.88582
301.11353
300.41132
299.77103
299.18577
298.64969
298.15777
297.70566
297.28958
296.90622
296.55269
296.2264
295.92509
295.64675
295.38958
295.15198
294.93253
294.72994
294.54308
294.37092
294.21255
294.06715
293.93399
293.81241
293.70183
293.60174
293.51168
293.43125
327.5787
322.05474
318.16477
315.17619
312.76018
310.74184
309.01713
307.51909
306.20199
305.03309
303.98805
303.04824
302.19898
301.42849
300.72714
300.08692
299.50108
298.9639
298.47045
298.01649
297.5983
297.21265
296.85668
296.52786
296.22398
295.94305
295.6833
295.44315
295.2212
295.01618
294.82696
294.65253
294.49198
294.3445
294.20937
294.08592
293.97358
293.87184
293.78025
293.69839
327.64004
322.1779
318.3309
315.37454
312.98365
310.98525
309.27651
307.79125
306.48429
305.32334
304.28442
303.34916
302.50314
301.73478
301.03463
300.39483
299.80878
299.27085
298.77623
298.32075
297.90078
297.51313
297.15501
296.82395
296.51774
296.23445
295.97234
295.72983
295.50556
295.29827
295.10684
294.93027
294.76767
294.61821
294.48119
294.35596
294.24193
294.13859
294.04549
293.96223
327.69911
322.29647
318.49086
315.56562
313.19905
311.22006
309.52693
308.05425
306.75739
305.60444
304.57176
303.64125
302.79871
302.03277
301.33412
300.69507
300.10911
299.57076
299.07529
298.6186
298.19713
297.80778
297.44778
297.11472
296.80643
296.521
296.25672
296.01205
295.78563
295.57622
295.38273
295.20415
295.03959
294.88827
294.74945
294.6225
294.50684
294.40195
294.30739
294.22275
327.75605
322.41076
318.64509
315.74991
313.40692
311.44681
309.76895
308.30866
307.0218
305.87688
304.85053
303.92493
303.08609
302.3228
301.62592
300.98788
300.40233
299.86385
299.3678
298.91019
298.48751
298.09671
297.73508
297.40025
297.0901
296.80274
296.53649
296.28984
296.06143
295.85005
295.65462
295.47415
295.30776
295.15466
295.01413
294.88553
294.7683
294.66192
294.56593
294.47993
327.81101
322.52105
318.79395
315.92787
313.60774
311.666
310.00308
308.55496
307.27802
306.14111
305.12117
304.2006
303.36562
302.60519
301.91032
301.27355
300.68865
300.1503
299.65395
299.19567
298.77203
298.38002
298.017
297.68063
297.36883
297.07973
296.81169
296.56321
296.33297
296.11978
295.92254
295.74029
295.57217
295.41737
295.27521
295.14504
295.02629
294.91846
294.82108
294.73376
327.86411
322.6276
318.9378
316.09988
313.80194
311.87809
310.22976
308.79361
307.52647
306.39755
305.38406
304.46863
303.63766
302.88026
302.1876
301.55233
300.96831
300.43033
299.93391
299.4752
299.05083
298.65784
298.29364
297.95593
297.64267
297.35202
297.08235
296.83222
296.60029
296.3854
296.18648
296.00257
295.83281
295.67642
295.5327
295.40102
295.28081
295.17157
295.07285
294.98423
327.91547
322.73065
319.07694
316.26632
313.98992
312.08349
310.44943
309.02502
307.76756
306.64659
305.63958
304.72936
303.90251
303.14831
302.45802
301.82444
301.24151
300.70412
300.20785
299.74893
299.32403
298.93027
298.5651
298.22624
297.91169
297.61966
297.34854
297.09689
296.86342
296.64696
296.44648
296.26101
296.0897
295.9318
295.78659
295.65347
295.53186
295.42125
295.32121
295.23131
327.96519
322.8304
319.21165
316.4275
314.17204
312.28257
310.66246
309.24959
308.00168
306.8886
305.88807
304.98311
304.16049
303.4096
302.72185
302.09013
301.50848
300.97185
300.47593
300.01699
299.59177
299.19743
298.83146
298.49163
298.17597
297.88271
297.61028
297.35726
297.12238
296.90448
296.70253
296.51561
296.34285
296.18351
296.0369
295.90238
295.77942
295.6675
295.56617
295.47502
328.01336
322.92705
319.34218
316.58372
314.34862
312.47569
310.86921
309.46765
308.22916
307.1239
306.12984
305.2302
304.41187
303.66441
302.97932
302.3496
301.76939
301.23371
300.73832
300.27954
299.85417
299.45942
299.09282
298.75219
298.43557
298.14125
297.86765
297.61339
297.37721
297.15798
296.95468
296.76639
296.59227
296.43157
296.28361
296.14777
296.0235
295.9103
295.80772
295.71535
328.06007
323.02076
319.46878
316.73527
314.51996
312.66316
311.07
309.67954
308.45033
307.35282
306.36521
305.47089
304.65692
303.91297
303.23066
302.60308
302.02445
301.48987
300.99516
300.5367
300.11135
299.71636
299.34929
299.008
298.69058
298.39531
298.12068
297.86531
297.62795
297.4075
297.20295
297.01338
296.83797
296.67599
296.52675
296.38964
296.26411
296.14968
296.04587
295.95231
328.10541
323.11171
319.59165
316.88239
314.68635
312.84527
311.26513
309.88556
308.66549
307.57564
306.59444
305.70546
304.89589
304.15552
303.47609
302.85076
302.27384
301.7405
301.24661
300.78862
300.36343
299.96834
299.60095
299.25914
298.94105
298.64498
298.36944
298.11306
297.87464
297.65307
297.44735
297.25659
297.07998
296.91678
296.76632
296.628
296.50126
296.38562
296.28063
296.18589
328.14943
323.20003
319.71098
317.02531
314.84803
313.02228
311.45488
310.08599
308.8749
307.79263
306.8178
305.93415
305.12901
304.39229
303.71581
303.09283
302.51773
301.98575
301.49282
301.03543
300.61054
300.21547
299.84789
299.50571
299.18706
298.89031
298.61397
298.35671
298.11732
297.89472
297.68793
297.49606
297.31832
297.15397
297.00234
296.86285
296.73495
296.61815
296.512
296.41611
328.19222
323.28586
319.82697
317.16423
315.00523
313.19444
311.6395
310.28108
309.07883
308.00404
307.03554
306.1572
305.35651
304.62348
303.95002
303.32948
302.7563
302.22578
301.73391
301.27725
300.85277
300.45787
300.09022
299.74777
299.4287
299.13137
298.85434
298.59629
298.35603
298.13249
297.92471
297.73181
297.55301
297.38757
297.23484
297.09423
296.96521
296.84728
296.74
296.64297
328.23383
323.36933
319.93976
317.29936
315.15817
313.36199
311.81922
310.47107
309.27752
308.21011
307.24787
306.37484
305.5786
304.84929
304.17891
303.56087
302.98969
302.46073
301.97004
301.5142
301.09026
300.69562
300.32801
299.98541
299.66602
299.36823
299.0906
298.83186
298.59081
298.36642
298.15773
297.96388
297.78407
297.6176
297.46382
297.32214
297.19204
297.07301
296.96463
296.8665
328.27432
323.45054
320.04952
317.43087
315.30705
313.52513
311.99428
310.65618
309.47118
308.41106
307.45501
306.58725
305.79548
305.06991
304.40265
303.78717
303.21807
302.69075
302.20132
301.74641
301.3231
300.92884
300.56137
300.21871
299.8991
299.60094
299.32282
299.06346
298.82172
298.59656
298.38703
298.19228
298.01154
297.84409
297.68931
297.54661
297.41546
297.29538
297.18592
297.08671
328.31373
323.5296
320.15639
317.55893
315.45205
313.68405
312.16486
310.83663
309.66003
308.60708
307.65717
306.79465
306.00732
305.28552
304.6214
304.00855
303.44158
302.91598
302.42789
301.97399
301.5514
301.1576
300.79038
300.44776
300.12801
299.82957
299.55104
299.29116
299.0488
298.82294
298.61264
298.41706
298.23544
298.06708
297.91134
297.76766
297.6355
297.51439
297.40389
297.30361
328.35213
323.60661
320.26048
317.6837
315.59334
313.83895
312.33116
311.0126
309.84425
308.79838
307.85453
306.9972
306.21431
305.49627
304.83534
304.22514
303.66036
303.13655
302.64987
302.19706
301.77527
301.38202
301.01512
300.67263
300.35283
300.05419
299.77533
299.515
299.2721
299.0456
298.8346
298.63825
298.45581
298.28658
298.12994
297.98531
297.85218
297.73007
297.61855
297.51723
328.38955
323.68165
320.36193
317.8053
315.73108
313.98999
312.49335
311.18427
310.02403
308.98513
308.04728
307.19509
306.41662
305.70235
305.04461
304.43709
303.87456
303.35257
302.86738
302.41573
301.99481
301.60218
301.23568
300.89339
300.57362
300.27486
299.99574
299.73504
299.49166
299.26459
299.05294
298.85589
298.67267
298.50262
298.34512
298.19959
298.06552
297.94244
297.82993
297.72758
328.42603
323.75482
320.46085
317.92389
315.86542
314.13732
312.65161
311.35182
310.19955
309.1675
308.23556
307.38848
306.61439
305.90388
305.24935
304.64455
304.08429
303.56419
303.08052
302.63009
302.21012
301.81818
301.45215
301.11013
300.79046
300.49165
300.21234
299.95133
299.70753
299.47996
299.26772
299.07001
298.88607
298.71525
298.55692
298.41052
298.27555
298.15154
298.03805
297.9347
328.46162
323.82619
320.55734
318.03957
315.99649
314.28109
312.80608
311.5154
310.37095
309.34565
308.41955
307.57752
306.80779
306.10103
305.44971
304.84764
304.28968
303.7715
303.28941
302.84025
302.42128
302.0301
301.6646
301.32292
301.00342
300.70461
300.42518
300.16392
299.91977
299.69175
299.47898
299.28065
299.09604
298.92449
298.76537
298.61815
298.4823
298.35737
298.24294
298.1386
328.49635
323.89583
320.6515
318.15247
316.12442
314.42145
312.9569
311.67515
310.53839
309.51974
308.59939
307.76235
306.99694
306.29392
305.64581
305.04648
304.49085
303.97463
303.49416
303.04632
302.6284
302.23802
301.87311
301.53184
301.21256
300.91382
300.63432
300.37287
300.12842
299.9
299.68674
299.48786
299.30262
299.13037
298.97051
298.82248
298.68579
298.55998
298.44462
298.33932
328.53025
323.96381
320.74342
318.26269
316.24934
314.55852
313.10422
311.83123
310.70201
309.68989
308.77523
307.94312
307.18199
306.48268
305.83778
305.24121
304.68792
304.17368
303.69487
303.24839
302.83156
302.44204
302.07778
301.73695
301.41795
301.11934
300.83982
300.57823
300.33353
300.10476
299.89107
299.69167
299.50584
299.33293
299.17236
299.02357
298.88606
298.75939
298.64312
298.53689
328.56335
324.0302
320.83318
318.37034
316.37134
314.69242
313.24815
311.98375
310.86195
309.85626
308.94718
308.11995
307.36307
306.66745
306.02574
305.43192
304.88099
304.36875
303.89163
303.44654
303.03085
302.64223
302.27866
301.93833
301.61966
301.32122
301.04174
300.78006
300.53516
300.30608
300.092
299.89212
299.70574
299.53222
299.37096
299.22144
299.08314
298.95563
298.83848
298.73132
328.5957
324.09504
320.92087
318.47551
316.49055
314.82326
313.38883
312.13285
311.01831
310.01895
309.11539
308.29296
307.54029
306.84832
306.2098
305.61873
305.07017
304.55996
304.08454
303.64088
303.22636
302.83868
302.47584
302.13605
301.81776
301.51953
301.24013
300.97841
300.73334
300.50401
300.28957
300.08925
299.90236
299.72825
299.56635
299.41612
299.27706
299.14874
299.03073
298.92266
328.6273
324.15841
321.00655
318.57828
316.60706
314.95115
313.52635
312.27863
311.17124
310.17809
309.27996
308.46228
307.71376
307.02543
306.39007
305.80175
305.25557
304.74738
304.27369
303.83148
303.41816
303.03146
302.66938
302.33018
302.0123
301.71434
301.43505
301.17333
300.92814
300.69859
300.48383
300.28311
300.09574
299.92108
299.75856
299.60764
299.46785
299.33874
299.21989
299.11093
328.65819
324.22034
321.09031
318.67874
316.72096
315.0762
313.66083
312.4212
311.32083
310.33379
309.44101
308.62802
307.88361
307.19888
306.56666
305.98108
305.43726
304.93112
304.45917
304.01844
303.60634
303.22064
302.85937
302.52079
302.20335
301.90569
301.62657
301.36487
301.11961
300.88987
300.67483
300.47374
300.28592
300.11074
299.94762
299.79606
299.65555
299.52567
299.406
299.29616
328.6884
324.28089
321.1722
318.77697
316.83234
315.19849
313.79237
312.56068
311.46719
310.48616
309.59864
308.79028
308.04992
307.36876
306.73966
306.1568
305.61536
305.11126
304.64107
304.20183
303.79098
303.40631
303.04587
302.70794
302.39098
302.09365
301.81472
301.5531
301.30778
301.07789
300.8626
300.66118
300.47294
300.29726
300.13359
299.98139
299.8402
299.70957
299.58909
299.4784
328.71794
324.34011
321.25228
318.87304
316.94128
315.31812
313.92106
312.69715
311.61043
310.6353
309.75296
308.94915
308.21281
307.53517
306.90917
306.32903
305.78995
305.2879
304.81947
304.38173
303.97215
303.58854
303.22895
302.89169
302.57525
302.27828
301.99958
301.73805
301.49272
301.26271
301.0472
300.84547
300.65684
300.48069
300.31648
300.16368
300.02182
299.89046
299.7692
299.65767
328.74684
324.39804
321.33062
318.96703
317.04786
315.43517
314.04698
312.83072
311.75063
310.78131
309.90407
309.10475
308.37237
307.69822
307.07528
306.49784
305.96111
305.46111
304.99445
304.55822
304.14993
303.76738
303.40867
303.07212
302.75622
302.45964
302.18118
301.91979
301.67447
301.44437
301.22867
301.02665
300.83766
300.66107
300.49635
300.34296
300.20045
300.06839
299.94636
299.83401
328.77511
324.45472
321.40728
319.05899
317.15216
315.54972
314.17023
312.96146
311.88789
310.92427
310.05205
309.25716
308.52868
307.85798
307.23809
306.66331
306.12893
305.63097
305.16608
304.73138
304.32438
303.94292
303.58511
303.24928
302.93394
302.63777
302.3596
302.09836
301.85308
301.62291
301.40705
301.20478
301.01544
300.83844
300.67322
300.51928
300.37614
300.24338
300.12061
300.00744
328.80279
324.51018
321.48229
319.149
317.25424
315.66184
314.29089
313.08947
312.02229
311.06428
310.197
309.40646
308.68184
308.01454
307.39766
306.82554
306.29349
305.79757
305.33445
304.90127
304.49558
304.11522
303.75832
303.42323
303.10847
302.81274
302.53488
302.27381
302.0286
301.79839
301.58239
301.37989
301.19023
301.01284
300.84715
300.69266
300.54891
300.41548
300.29197
300.17802
328.82988
324.56448
321.55572
319.2371
317.35418
315.77162
314.40902
313.21481
312.15391
311.20141
310.33899
309.55275
308.83192
308.168
307.55409
306.9846
306.45486
305.96097
305.49962
305.06797
304.66359
304.28434
303.92837
303.59404
303.27988
302.98461
302.70707
302.4462
302.20108
301.97085
301.75473
301.55202
301.36207
301.1843
301.01816
300.86315
300.71881
300.58473
300.4605
300.34577
328.8564
324.61763
321.62761
319.32336
317.45203
315.87911
314.52471
313.33757
312.28284
311.33576
310.4781
309.69609
308.97902
308.31841
307.70745
307.14057
306.61312
306.12125
305.66166
305.23154
304.82848
304.45035
304.09532
303.76175
303.44822
303.15342
302.87622
302.61558
302.37056
302.14033
301.92412
301.72122
301.531
301.35287
301.18629
301.03078
300.88587
300.75115
300.62622
300.51073
328.88237
324.66968
321.69801
319.40783
317.54785
315.98438
314.63802
313.45782
312.40914
311.46738
310.61442
309.83657
309.12319
308.46587
307.85782
307.29351
306.76835
306.27848
305.82065
305.39206
304.99031
304.61331
304.25923
303.92644
303.61354
303.31923
303.04239
302.78199
302.5371
302.30689
302.0906
301.88753
301.69705
301.51858
301.3516
301.1956
301.05013
300.91479
300.78918
300.67294
328.90781
324.72065
321.76695
319.49057
317.6417
316.0875
314.74902
313.57563
312.53289
311.59635
310.74802
309.97427
309.26453
308.61044
308.00527
307.44351
306.9206
306.43273
305.97664
305.54958
305.14915
304.77328
304.42015
304.08816
303.7759
303.4821
303.20563
302.94548
302.70074
302.47056
302.25421
302.05099
301.86028
301.68149
301.51411
301.35764
301.21163
301.07568
300.9494
300.83242
328.93273
324.77058
321.83449
319.57161
317.73364
316.18852
314.85778
313.69106
312.65416
311.72275
310.87896
310.10924
309.40309
308.75219
308.14986
307.59062
307.06996
306.58406
306.12971
305.70417
305.30505
304.93031
304.57814
304.24696
303.93535
303.64206
303.36599
303.10611
302.86152
302.6314
302.415
302.21165
302.02071
301.84162
301.67386
301.51693
301.37041
301.23386
301.10692
300.98923
328.95714
324.8195
321.90065
319.651
317.82372
316.2875
314.96434
313.80418
312.773
311.84664
311.00731
310.24156
309.53894
308.89119
308.29166
307.73492
307.21647
306.73253
306.27991
305.85588
305.45808
305.08448
304.73327
304.40289
304.09194
303.79918
303.52351
303.26391
303.01949
302.78944
302.57302
302.36954
302.1784
301.99902
301.83089
301.67353
301.52649
301.38937
301.26179
301.14339
328.98106
324.86743
321.96548
319.7288
317.91199
316.38449
315.06877
313.91504
312.88949
311.96808
311.13315
310.37129
309.67215
309.02751
308.43075
307.87647
307.36021
306.87821
306.42731
306.00478
305.60829
305.23582
304.88558
304.55601
304.24573
303.95351
303.67824
303.41894
303.17471
302.94474
302.7283
302.52472
302.33338
302.15373
301.98525
301.82746
301.67993
301.54225
301.41403
301.29494
329.00451
324.91439
322.029
319.80504
317.99849
316.47955
315.17112
314.02371
313.00367
312.08714
311.25652
310.4985
309.80279
309.1612
308.56717
308.01533
307.50124
307.02116
306.57196
306.15092
305.75574
305.3844
305.03512
304.70637
304.39677
304.10509
303.83024
303.57124
303.3272
303.09733
302.88089
302.67721
302.4857
302.30579
302.13697
301.97877
301.83076
301.69252
301.56369
301.44392
329.02748
324.96042
322.09126
319.87976
318.08327
316.57273
315.27145
314.13023
313.11562
312.20386
311.37748
310.62325
309.9309
309.29233
308.70099
308.15156
307.63961
307.16144
306.71392
306.29437
305.90049
305.53027
305.18196
304.85402
304.5451
304.25396
303.97954
303.72086
303.47703
303.24726
303.03083
302.82707
302.63539
302.45524
302.28609
302.1275
301.97901
301.84024
301.71081
301.59037
329.05
325.00554
322.15228
319.953
318.16638
316.66407
315.36981
314.23466
313.22537
312.31831
311.49611
310.74559
310.05656
309.42095
308.83227
308.28521
307.77538
307.29909
306.85324
306.43517
306.04257
305.67348
305.32613
304.99902
304.69077
304.40019
304.1262
303.86784
303.62422
303.39457
303.17816
302.97433
302.7825
302.60211
302.43265
302.27367
302.12473
301.98543
301.85541
301.73431
329.07208
325.04977
322.21211
320.0248
318.24785
316.75361
315.46624
314.33706
313.33299
312.43055
311.61244
310.86557
310.17981
309.54713
308.96107
308.41635
307.90861
307.43418
306.98999
306.57337
306.18206
305.81408
305.4677
305.1414
304.83383
304.54381
304.27026
304.01222
303.76883
303.5393
303.32292
303.11904
302.92706
302.74644
302.57669
302.41733
302.26795
302.12814
301.99753
301.8758
329.09373
325.09313
322.27076
320.09519
318.32773
316.84141
315.56079
314.43746
313.43853
312.54062
311.72653
310.98326
310.30072
309.67091
309.08743
308.54502
308.03934
307.56676
307.1242
306.70903
306.31899
305.95212
305.6067
305.28121
304.97433
304.68487
304.41177
304.15406
303.9109
303.6815
303.46516
303.26122
303.06912
302.88829
302.71824
302.55852
302.4087
302.26839
302.13722
302.01486
329.11495
325.13564
322.32826
320.1642
318.40605
316.9275
315.65351
314.53593
313.54203
312.64857
311.83845
311.09871
310.41932
309.79235
309.21141
308.67128
308.16764
307.69688
307.25594
306.8422
306.45343
306.08765
305.74318
305.41851
305.11232
304.82342
304.55076
304.29339
304.05046
303.8212
303.60491
303.40094
303.2087
303.02767
302.85735
302.69728
302.54704
302.40624
302.27451
302.15153
329.13576
325.17733
322.38464
320.23188
318.48286
317.01192
315.74443
314.63249
313.64354
312.75446
311.94822
311.21196
310.53568
309.9115
309.33307
308.79518
308.29355
307.82459
307.38525
306.97293
306.5854
306.22073
305.8772
305.55334
305.24783
304.95949
304.68728
304.43026
304.18757
303.95846
303.74222
303.53821
303.34586
303.16464
302.99405
302.83363
302.68298
302.5417
302.40943
302.28584
329.15617
325.21821
322.43994
320.29825
318.55818
317.09471
315.83361
314.72721
313.74311
312.85832
312.05591
311.32306
310.64984
310.02841
309.45244
308.91677
308.41713
307.94994
307.51218
307.10126
306.71497
306.35138